# vtk DataFile Version 2.0
MyTitle
ASCII
DATASET UNSTRUCTURED_GRID
POINTS 1761 double
0.000000 0.000000 0.000000
1.000000 0.000000 0.000000
1.000000 1.000000 0.000000
0.000000 1.000000 0.000000
0.420000 0.420000 0.000000
0.580000 0.420000 0.000000
0.580000 0.580000 0.000000
0.420000 0.580000 0.000000
0.358579 0.358579 0.000000
0.641421 0.358579 0.000000
0.641421 0.641421 0.000000
0.358579 0.641421 0.000000
2.000000 0.000000 0.000000
2.000000 1.000000 0.000000
1.420000 0.420000 0.000000
1.580000 0.420000 0.000000
1.580000 0.580000 0.000000
1.420000 0.580000 0.000000
1.358579 0.358579 0.000000
1.641421 0.358579 0.000000
1.641421 0.641421 0.000000
1.358579 0.641421 0.000000
3.000000 0.000000 0.000000
3.000000 1.000000 0.000000
2.420000 0.420000 0.000000
2.580000 0.420000 0.000000
2.580000 0.580000 0.000000
2.420000 0.580000 0.000000
2.358579 0.358579 0.000000
2.641421 0.358579 0.000000
2.641421 0.641421 0.000000
2.358579 0.641421 0.000000
4.000000 0.000000 0.000000
4.000000 1.000000 0.000000
3.420000 0.420000 0.000000
3.580000 0.420000 0.000000
3.580000 0.580000 0.000000
3.420000 0.580000 0.000000
3.358579 0.358579 0.000000
3.641421 0.358579 0.000000
3.641421 0.641421 0.000000
3.358579 0.641421 0.000000
1.000000 2.000000 0.000000
0.000000 2.000000 0.000000
0.420000 1.420000 0.000000
0.580000 1.420000 0.000000
0.580000 1.580000 0.000000
0.420000 1.580000 0.000000
0.358579 1.358579 0.000000
0.641421 1.358579 0.000000
0.641421 1.641421 0.000000
0.358579 1.641421 0.000000
2.000000 2.000000 0.000000
1.420000 1.420000 0.000000
1.580000 1.420000 0.000000
1.580000 1.580000 0.000000
1.420000 1.580000 0.000000
1.358579 1.358579 0.000000
1.641421 1.358579 0.000000
1.641421 1.641421 0.000000
1.358579 1.641421 0.000000
3.000000 2.000000 0.000000
2.420000 1.420000 0.000000
2.580000 1.420000 0.000000
2.580000 1.580000 0.000000
2.420000 1.580000 0.000000
2.358579 1.358579 0.000000
2.641421 1.358579 0.000000
2.641421 1.641421 0.000000
2.358579 1.641421 0.000000
4.000000 2.000000 0.000000
3.420000 1.420000 0.000000
3.580000 1.420000 0.000000
3.580000 1.580000 0.000000
3.420000 1.580000 0.000000
3.358579 1.358579 0.000000
3.641421 1.358579 0.000000
3.641421 1.641421 0.000000
3.358579 1.641421 0.000000
1.000000 3.000000 0.000000
0.000000 3.000000 0.000000
0.420000 2.420000 0.000000
0.580000 2.420000 0.000000
0.580000 2.580000 0.000000
0.420000 2.580000 0.000000
0.358579 2.358579 0.000000
0.641421 2.358579 0.000000
0.641421 2.641421 0.000000
0.358579 2.641421 0.000000
2.000000 3.000000 0.000000
1.420000 2.420000 0.000000
1.580000 2.420000 0.000000
1.580000 2.580000 0.000000
1.420000 2.580000 0.000000
1.358579 2.358579 0.000000
1.641421 2.358579 0.000000
1.641421 2.641421 0.000000
1.358579 2.641421 0.000000
3.000000 3.000000 0.000000
2.420000 2.420000 0.000000
2.580000 2.420000 0.000000
2.580000 2.580000 0.000000
2.420000 2.580000 0.000000
2.358579 2.358579 0.000000
2.641421 2.358579 0.000000
2.641421 2.641421 0.000000
2.358579 2.641421 0.000000
4.000000 3.000000 0.000000
3.420000 2.420000 0.000000
3.580000 2.420000 0.000000
3.580000 2.580000 0.000000
3.420000 2.580000 0.000000
3.358579 2.358579 0.000000
3.641421 2.358579 0.000000
3.641421 2.641421 0.000000
3.358579 2.641421 0.000000
1.000000 4.000000 0.000000
0.000000 4.000000 0.000000
0.420000 3.420000 0.000000
0.580000 3.420000 0.000000
0.580000 3.580000 0.000000
0.420000 3.580000 0.000000
0.358579 3.358579 0.000000
0.641421 3.358579 0.000000
0.641421 3.641421 0.000000
0.358579 3.641421 0.000000
2.000000 4.000000 0.000000
1.420000 3.420000 0.000000
1.580000 3.420000 0.000000
1.580000 3.580000 0.000000
1.420000 3.580000 0.000000
1.358579 3.358579 0.000000
1.641421 3.358579 0.000000
1.641421 3.641421 0.000000
1.358579 3.641421 0.000000
3.000000 4.000000 0.000000
2.420000 3.420000 0.000000
2.580000 3.420000 0.000000
2.580000 3.580000 0.000000
2.420000 3.580000 0.000000
2.358579 3.358579 0.000000
2.641421 3.358579 0.000000
2.641421 3.641421 0.000000
2.358579 3.641421 0.000000
4.000000 4.000000 0.000000
3.420000 3.420000 0.000000
3.580000 3.420000 0.000000
3.580000 3.580000 0.000000
3.420000 3.580000 0.000000
3.358579 3.358579 0.000000
3.641421 3.358579 0.000000
3.641421 3.641421 0.000000
3.358579 3.641421 0.000000
0.500000 0.000000 0.000000
0.250000 0.000000 0.000000
0.750000 0.000000 0.000000
1.000000 0.500000 0.000000
1.000000 0.250000 0.000000
1.000000 0.750000 0.000000
0.500000 1.000000 0.000000
0.750000 1.000000 0.000000
0.250000 1.000000 0.000000
0.000000 0.500000 0.000000
0.000000 0.750000 0.000000
0.000000 0.250000 0.000000
0.500000 0.420000 0.000000
0.460000 0.420000 0.000000
0.540000 0.420000 0.000000
0.580000 0.500000 0.000000
0.580000 0.460000 0.000000
0.580000 0.540000 0.000000
0.500000 0.580000 0.000000
0.540000 0.580000 0.000000
0.460000 0.580000 0.000000
0.420000 0.500000 0.000000
0.420000 0.540000 0.000000
0.420000 0.460000 0.000000
0.500000 0.300001 0.000000
0.423464 0.315225 0.000000
0.576536 0.315225 0.000000
0.699999 0.500000 0.000000
0.684775 0.423464 0.000000
0.684775 0.576536 0.000000
0.500000 0.699999 0.000000
0.576536 0.684775 0.000000
0.423464 0.684775 0.000000
0.300001 0.500000 0.000000
0.315225 0.576536 0.000000
0.315225 0.423464 0.000000
0.389290 0.389290 0.000000
0.404645 0.404645 0.000000
0.373934 0.373934 0.000000
0.610710 0.389290 0.000000
0.595355 0.404645 0.000000
0.626066 0.373934 0.000000
0.610710 0.610710 0.000000
0.595355 0.595355 0.000000
0.626066 0.626066 0.000000
0.389290 0.610710 0.000000
0.404645 0.595355 0.000000
0.373934 0.626066 0.000000
0.179290 0.179290 0.000000
0.268934 0.268934 0.000000
0.089645 0.089645 0.000000
0.820710 0.179290 0.000000
0.731066 0.268934 0.000000
0.910355 0.089645 0.000000
0.820710 0.820710 0.000000
0.731066 0.731066 0.000000
0.910355 0.910355 0.000000
0.179290 0.820710 0.000000
0.268934 0.731066 0.000000
0.089645 0.910355 0.000000
1.500000 0.000000 0.000000
1.250000 0.000000 0.000000
1.750000 0.000000 0.000000
2.000000 0.500000 0.000000
2.000000 0.250000 0.000000
2.000000 0.750000 0.000000
1.500000 1.000000 0.000000
1.750000 1.000000 0.000000
1.250000 1.000000 0.000000
1.500000 0.420000 0.000000
1.460000 0.420000 0.000000
1.540000 0.420000 0.000000
1.580000 0.500000 0.000000
1.580000 0.460000 0.000000
1.580000 0.540000 0.000000
1.500000 0.580000 0.000000
1.540000 0.580000 0.000000
1.460000 0.580000 0.000000
1.420000 0.500000 0.000000
1.420000 0.540000 0.000000
1.420000 0.460000 0.000000
1.500000 0.300001 0.000000
1.423464 0.315225 0.000000
1.576536 0.315225 0.000000
1.699999 0.500000 0.000000
1.684775 0.423464 0.000000
1.684775 0.576536 0.000000
1.500000 0.699999 0.000000
1.576536 0.684775 0.000000
1.423464 0.684775 0.000000
1.300001 0.500000 0.000000
1.315225 0.576536 0.000000
1.315225 0.423464 0.000000
1.389290 0.389290 0.000000
1.404645 0.404645 0.000000
1.373934 0.373934 0.000000
1.610710 0.389290 0.000000
1.595355 0.404645 0.000000
1.626066 0.373934 0.000000
1.610710 0.610710 0.000000
1.595355 0.595355 0.000000
1.626066 0.626066 0.000000
1.389290 0.610710 0.000000
1.404645 0.595355 0.000000
1.373934 0.626066 0.000000
1.179290 0.179290 0.000000
1.268934 0.268934 0.000000
1.089645 0.089645 0.000000
1.820710 0.179290 0.000000
1.731066 0.268934 0.000000
1.910355 0.089645 0.000000
1.820710 0.820710 0.000000
1.731066 0.731066 0.000000
1.910355 0.910355 0.000000
1.179290 0.820710 0.000000
1.268934 0.731066 0.000000
1.089645 0.910355 0.000000
2.500000 0.000000 0.000000
2.250000 0.000000 0.000000
2.750000 0.000000 0.000000
3.000000 0.500000 0.000000
3.000000 0.250000 0.000000
3.000000 0.750000 0.000000
2.500000 1.000000 0.000000
2.750000 1.000000 0.000000
2.250000 1.000000 0.000000
2.500000 0.420000 0.000000
2.460000 0.420000 0.000000
2.540000 0.420000 0.000000
2.580000 0.500000 0.000000
2.580000 0.460000 0.000000
2.580000 0.540000 0.000000
2.500000 0.580000 0.000000
2.540000 0.580000 0.000000
2.460000 0.580000 0.000000
2.420000 0.500000 0.000000
2.420000 0.540000 0.000000
2.420000 0.460000 0.000000
2.500000 0.300001 0.000000
2.423464 0.315225 0.000000
2.576536 0.315225 0.000000
2.699999 0.500000 0.000000
2.684775 0.423464 0.000000
2.684775 0.576536 0.000000
2.500000 0.699999 0.000000
2.576536 0.684775 0.000000
2.423464 0.684775 0.000000
2.300001 0.500000 0.000000
2.315225 0.576536 0.000000
2.315225 0.423464 0.000000
2.389289 0.389289 0.000000
2.404645 0.404645 0.000000
2.373934 0.373934 0.000000
2.610711 0.389289 0.000000
2.595355 0.404645 0.000000
2.626066 0.373934 0.000000
2.610711 0.610711 0.000000
2.595355 0.595355 0.000000
2.626066 0.626066 0.000000
2.389289 0.610711 0.000000
2.404645 0.595355 0.000000
2.373934 0.626066 0.000000
2.179290 0.179290 0.000000
2.268934 0.268934 0.000000
2.089645 0.089645 0.000000
2.820710 0.179290 0.000000
2.731066 0.268934 0.000000
2.910355 0.089645 0.000000
2.820710 0.820710 0.000000
2.731066 0.731066 0.000000
2.910355 0.910355 0.000000
2.179290 0.820710 0.000000
2.268934 0.731066 0.000000
2.089645 0.910355 0.000000
3.500000 0.000000 0.000000
3.250000 0.000000 0.000000
3.750000 0.000000 0.000000
4.000000 0.500000 0.000000
4.000000 0.250000 0.000000
4.000000 0.750000 0.000000
3.500000 1.000000 0.000000
3.750000 1.000000 0.000000
3.250000 1.000000 0.000000
3.500000 0.420000 0.000000
3.460000 0.420000 0.000000
3.540000 0.420000 0.000000
3.580000 0.500000 0.000000
3.580000 0.460000 0.000000
3.580000 0.540000 0.000000
3.500000 0.580000 0.000000
3.540000 0.580000 0.000000
3.460000 0.580000 0.000000
3.420000 0.500000 0.000000
3.420000 0.540000 0.000000
3.420000 0.460000 0.000000
3.500000 0.300001 0.000000
3.423464 0.315225 0.000000
3.576536 0.315225 0.000000
3.699999 0.500000 0.000000
3.684775 0.423464 0.000000
3.684775 0.576536 0.000000
3.500000 0.699999 0.000000
3.576536 0.684775 0.000000
3.423464 0.684775 0.000000
3.300001 0.500000 0.000000
3.315225 0.576536 0.000000
3.315225 0.423464 0.000000
3.389289 0.389289 0.000000
3.404645 0.404645 0.000000
3.373934 0.373934 0.000000
3.610711 0.389289 0.000000
3.595355 0.404645 0.000000
3.626066 0.373934 0.000000
3.610711 0.610711 0.000000
[...]
POINT_DATA 1761
VECTORS sol double
+0.000000 +0.000000 0
+0.000000 +0.000000 0
+0.275745 -0.046177 0
+0.000000 +0.000000 0
+0.198389 -0.033222 0
+0.237343 -0.057271 0
+0.299662 -0.050182 0
+0.250928 -0.024495 0
+0.154402 -0.025856 0
+0.214936 -0.065192 0
+0.327960 -0.054921 0
+0.237569 -0.010585 0
+0.000000 +0.000000 0
-0.308479 -0.241179 0
+0.015403 -0.230791 0
-0.061673 -0.236548 0
-0.084306 -0.286592 0
+0.013491 -0.273919 0
+0.042205 -0.200239 0
-0.076959 -0.206742 0
-0.129323 -0.297432 0
+0.053100 -0.269815 0
+0.000000 +0.000000 0
+0.160510 +0.387255 0
-0.144581 +0.075291 0
-0.091499 +0.171297 0
-0.111740 +0.197105 0
-0.181455 +0.078811 0
-0.141485 +0.035955 0
-0.060472 +0.185957 0
-0.083957 +0.245690 0
-0.215750 +0.027644 0
+0.000000 +0.000000 0
+0.000000 +0.000000 0
+0.130441 +0.344816 0
+0.115481 +0.278616 0
+0.153779 +0.340908 0
+0.174431 +0.420842 0
+0.112258 +0.321003 0
+0.089876 +0.216841 0
+0.151142 +0.314491 0
+0.190903 +0.460584 0
-0.081484 +0.306482 0
+0.000000 +0.000000 0
+0.192303 +0.196008 0
+0.224070 +0.234137 0
+0.148792 +0.275793 0
+0.129694 +0.225157 0
+0.191943 +0.161028 0
+0.255356 +0.218161 0
+0.118022 +0.299325 0
+0.093288 +0.204007 0
-0.000000 +0.000000 0
-0.062101 +0.010399 0
-0.142931 -0.066089 0
-0.130368 +0.021832 0
-0.073148 +0.102274 0
-0.019504 +0.003266 0
-0.174949 -0.125820 0
-0.138073 +0.023122 0
-0.054709 +0.164279 0
+0.081484 -0.306482 0
-0.122831 -0.141692 0
-0.036148 -0.087214 0
-0.002948 -0.161768 0
-0.075887 -0.183088 0
-0.170124 -0.143969 0
-0.011353 -0.027391 0
+0.036441 -0.178560 0
-0.080371 -0.193908 0
+0.000000 +0.000000 0
+0.250022 +0.136524 0
+0.212404 +0.120405 0
+0.184176 +0.020237 0
+0.218992 +0.011752 0
+0.263507 +0.187503 0
+0.196768 +0.142879 0
+0.150990 -0.013023 0
+0.209172 -0.043514 0
-0.160510 -0.387255 0
+0.000000 +0.000000 0
-0.184176 -0.020237 0
-0.218992 -0.011752 0
-0.250022 -0.136524 0
-0.212404 -0.120405 0
-0.150990 +0.013023 0
-0.209172 +0.043514 0
-0.263507 -0.187503 0
-0.196768 -0.142879 0
+0.308479 +0.241179 0
+0.002948 +0.161768 0
+0.075887 +0.183088 0
+0.122831 +0.141692 0
+0.036148 +0.087214 0
-0.036441 +0.178560 0
+0.080371 +0.193908 0
+0.170124 +0.143969 0
+0.011353 +0.027391 0
-0.275745 +0.046177 0
+0.130368 -0.021832 0
+0.073148 -0.102274 0
+0.062101 -0.010399 0
+0.142931 +0.066089 0
+0.138073 -0.023122 0
+0.054709 -0.164279 0
+0.019504 -0.003266 0
+0.174949 +0.125820 0
+0.000000 +0.000000 0
-0.148792 -0.275793 0
-0.129694 -0.225157 0
-0.192303 -0.196008 0
-0.224070 -0.234137 0
-0.118022 -0.299325 0
-0.093288 -0.204007 0
-0.191943 -0.161028 0
-0.255356 -0.218161 0
+0.000000 +0.000000 0
+0.000000 +0.000000 0
-0.153779 -0.340908 0
-0.174431 -0.420842 0
-0.130441 -0.344816 0
-0.115481 -0.278616 0
-0.151142 -0.314491 0
-0.190903 -0.460584 0
-0.112258 -0.321003 0
-0.089876 -0.216841 0
+0.000000 +0.000000 0
+0.111740 -0.197105 0
+0.181455 -0.078811 0
+0.144581 -0.075291 0
+0.091499 -0.171297 0
+0.083957 -0.245690 0
+0.215750 -0.027644 0
+0.141485 -0.035955 0
+0.060472 -0.185957 0
+0.000000 +0.000000 0
+0.084306 +0.286592 0
-0.013491 +0.273919 0
-0.015403 +0.230791 0
+0.061673 +0.236548 0
+0.129323 +0.297432 0
-0.053100 +0.269815 0
-0.042205 +0.200239 0
+0.076959 +0.206742 0
+0.000000 +0.000000 0
-0.299662 +0.050182 0
-0.250928 +0.024495 0
-0.198389 +0.033222 0
-0.237343 +0.057271 0
-0.327960 +0.054921 0
-0.237569 +0.010585 0
-0.154402 +0.025856 0
-0.214936 +0.065192 0
+0.000000 +0.000000 0
+0.000000 +0.000000 0
+0.000000 +0.000000 0
+0.228305 -0.162696 0
+0.127972 -0.104478 0
+0.279070 -0.141981 0
+0.324784 +0.070075 0
+0.352902 +0.036150 0
+0.192347 +0.050837 0
+0.000000 +0.000000 0
+0.000000 +0.000000 0
+0.000000 +0.000000 0
+0.221304 -0.044255 0
+0.210657 -0.038491 0
+0.230219 -0.050520 0
+0.271157 -0.056297 0
+0.254864 -0.057400 0
+0.286106 -0.053881 0
+0.279598 -0.035933 0
+0.290734 -0.042717 0
+0.266275 -0.029871 0
+0.226881 -0.030799 0
+0.239495 -0.028139 0
+0.213149 -0.032480 0
+0.165565 -0.039399 0
+0.156307 -0.031453 0
+0.185291 -0.050583 0
+0.282768 -0.082010 0
+0.248455 -0.076993 0
+0.310072 -0.073101 0
+0.309633 -0.017194 0
+0.326487 -0.033497 0
+0.275885 -0.010814 0
+0.174614 -0.017567 0
+0.200449 -0.014013 0
+0.160398 -0.021582 0
+0.176501 -0.029557 0
+0.187443 -0.031389 0
+0.165295 -0.027680 0
+0.226928 -0.061504 0
+0.232408 -0.059511 0
+0.221268 -0.063591 0
+0.314261 -0.052627 0
+0.307191 -0.051443 0
+0.321476 -0.053835 0
+0.245147 -0.017550 0
+0.248370 -0.021000 0
+0.241839 -0.013961 0
+0.043515 -0.007287 0
+0.094523 -0.015829 0
+0.011474 -0.001921 0
+0.111200 -0.058491 0
+0.167469 -0.067002 0
+0.053863 -0.035829 0
+0.348451 -0.058352 0
+0.348037 -0.058283 0
+0.322843 -0.054064 0
+0.142106 +0.016073 0
+0.197667 +0.005856 0
+0.074644 +0.014309 0
+0.000000 +0.000000 0
+0.000000 +0.000000 0
+0.000000 +0.000000 0
-0.216662 -0.169394 0
-0.117311 -0.091718 0
-0.282548 -0.220905 0
-0.077299 -0.244286 0
-0.232097 -0.281007 0
+0.111870 -0.152296 0
-0.024031 -0.236066 0
-0.004444 -0.233987 0
-0.043166 -0.236938 0
-0.073076 -0.265314 0
-0.067388 -0.251813 0
-0.078716 -0.276927 0
-0.036580 -0.283131 0
-0.060830 -0.285611 0
-0.011732 -0.279195 0
+0.015103 -0.256488 0
+0.014456 -0.266266 0
+0.015412 -0.244611 0
-0.016020 -0.181368 0
+0.012073 -0.186011 0
-0.044894 -0.188758 0
-0.130933 -0.256453 0
-0.106536 -0.230280 0
-0.139840 -0.280062 0
-0.047545 -0.296447 0
-0.095951 -0.301527 0
+0.006837 -0.283410 0
+0.083792 -0.237575 0
+0.079741 -0.253182 0
+0.067374 -0.218568 0
+0.029475 -0.215879 0
+0.022714 -0.223457 0
+0.036352 -0.208165 0
-0.070050 -0.222318 0
-0.066144 -0.229652 0
-0.073979 -0.214752 0
-0.106421 -0.292416 0
-0.095288 -0.289683 0
-0.117799 -0.295137 0
+0.032697 -0.272762 0
+0.022927 -0.273689 0
+0.042667 -0.271816 0
+0.062520 -0.096552 0
+0.061725 -0.149676 0
+0.041027 -0.045865 0
-0.068475 -0.094844 0
-0.080699 -0.152823 0
-0.040438 -0.042508 0
-0.247709 -0.288697 0
-0.191685 -0.298552 0
-0.286523 -0.268063 0
+0.177065 -0.192347 0
+0.114778 -0.240652 0
+0.230992 -0.125875 0
+0.000000 +0.000000 0
+0.000000 +0.000000 0
+0.000000 +0.000000 0
+0.078102 +0.402255 0
+0.037932 +0.234186 0
+0.120514 +0.454388 0
-0.158236 +0.060137 0
+0.006321 +0.244701 0
-0.275920 -0.116177 0
-0.119683 +0.123706 0
-0.132616 +0.099506 0
-0.105922 +0.147699 0
-0.103008 +0.187761 0
-0.097577 +0.180372 0
-0.107738 +0.193335 0
-0.148632 +0.138326 0
-0.130604 +0.167912 0
-0.165628 +0.108560 0
-0.164723 +0.079396 0
-0.173535 +0.079709 0
-0.155049 +0.077904 0
-0.090350 +0.098205 0
-0.112539 +0.065673 0
-0.073970 +0.137618 0
-0.049635 +0.264280 0
-0.052035 +0.230560 0
-0.059163 +0.269271 0
-0.161685 +0.132864 0
-0.120282 +0.194715 0
-0.195667 +0.073531 0
-0.198766 -0.001316 0
-0.215000 +0.002637 0
-0.171244 +0.013103 0
-0.143811 +0.055115 0
-0.144478 +0.064981 0
-0.143057 +0.045067 0
-0.075706 +0.179735 0
-0.083476 +0.175952 0
-0.067800 +0.183577 0
-0.098634 +0.221211 0
-0.105450 +0.209170 0
-0.091679 +0.233497 0
-0.198522 +0.054002 0
-0.190018 +0.066622 0
-0.207182 +0.041057 0
-0.086660 -0.026445 0
-0.120201 -0.004247 0
-0.045233 -0.024472 0
-0.001504 +0.144256 0
-0.025411 +0.178067 0
+0.006715 +0.083191 0
+0.031445 +0.355366 0
-0.030669 +0.306411 0
+0.096074 +0.381586 0
-0.289544 -0.131345 0
-0.257141 -0.052355 0
-0.305915 -0.195124 0
+0.000000 +0.000000 0
+0.000000 +0.000000 0
+0.000000 +0.000000 0
+0.000000 +0.000000 0
+0.000000 +0.000000 0
+0.000000 +0.000000 0
+0.243848 +0.374499 0
+0.148524 +0.215666 0
+0.247353 +0.433147 0
+0.125652 +0.315516 0
+0.128741 +0.331166 0
+0.121207 +0.297953 0
+0.135234 +0.313912 0
+0.125488 +0.297236 0
+0.144677 +0.328497 0
+0.167545 +0.385524 0
+0.161477 +0.364301 0
+0.171862 +0.404389 0
+0.153046 +0.387952 0
+0.163913 +0.405720 0
+0.141875 +0.367583 0
+0.091235 +0.240173 0
+0.099249 +0.273046 0
+0.088661 +0.222977 0
+0.106781 +0.237570 0
+0.095690 +0.221800 0
+0.125289 +0.268685 0
+0.195492 +0.412117 0
+0.176169 +0.364244 0
+0.199369 +0.444628 0
+0.149340 +0.419845 0
+0.171169 +0.449351 0
+0.129046 +0.372135 0
+0.121747 +0.334110 0
+0.126218 +0.339897 0
+0.117116 +0.328151 0
+0.102740 +0.247876 0
+0.109109 +0.263243 0
+0.096217 +0.232138 0
+0.153045 +0.328869 0
+0.153640 +0.335305 0
+0.152456 +0.322233 0
+0.182930 +0.441346 0
+0.178814 +0.431417 0
+0.187129 +0.451478 0
+0.047177 +0.182316 0
+0.080332 +0.260741 0
+0.019551 +0.093227 0
+0.025330 +0.061112 0
+0.055021 +0.132747 0
+0.006679 +0.016114 0
+0.100271 +0.173425 0
+0.132211 +0.252053 0
+0.055252 +0.087248 0
+0.202831 +0.489361 0
+0.202590 +0.488781 0
+0.187925 +0.453398 0
+0.122095 +0.236785 0
+0.215402 +0.097491 0
+0.015856 +0.317219 0
-0.057231 +0.215260 0
-0.074634 +0.280719 0
-0.030987 +0.116552 0
+0.000000 +0.000000 0
+0.000000 +0.000000 0
+0.000000 +0.000000 0
+0.211962 +0.218463 0
+0.203024 +0.208031 0
+0.218978 +0.227175 0
+0.187640 +0.257835 0
+0.206211 +0.246627 0
+0.168461 +0.267587 0
+0.142071 +0.253760 0
+0.146164 +0.265632 0
+0.136554 +0.240230 0
+0.162077 +0.212948 0
+0.146102 +0.219700 0
+0.177510 +0.205005 0
+0.257074 +0.180494 0
+0.228053 +0.169096 0
+0.265646 +0.195343 0
+0.188420 +0.272855 0
+0.225637 +0.244480 0
+0.150236 +0.292437 0
+0.084855 +0.264169 0
+0.095405 +0.287503 0
+0.085797 +0.233753 0
+0.126648 +0.162842 0
+0.107251 +0.178316 0
+0.154694 +0.158084 0
+0.192990 +0.178625 0
+0.192980 +0.187336 0
+0.192994 +0.169759 0
+0.239887 +0.227115 0
+0.232104 +0.230982 0
+0.247829 +0.223169 0
+0.134063 +0.287787 0
+0.141632 +0.281922 0
+0.126271 +0.293719 0
+0.111375 +0.215398 0
+0.120458 +0.220556 0
+0.102091 +0.210045 0
+0.129247 +0.064438 0
+0.169736 +0.110915 0
+0.071254 +0.027062 0
+0.303179 +0.111925 0
+0.286422 +0.173467 0
+0.298581 +0.037192 0
+0.008232 +0.328800 0
+0.064623 +0.319830 0
-0.041538 +0.323000 0
+0.013933 +0.103978 0
+0.048238 +0.158259 0
-0.002238 +0.049654 0
-0.216662 -0.169394 0
-0.282548 -0.220905 0
-0.117311 -0.091718 0
-0.057231 +0.215260 0
-0.030987 +0.116552 0
-0.074634 +0.280719 0
-0.104216 -0.028735 0
-0.083488 -0.009302 0
-0.124080 -0.047709 0
-0.137880 -0.021568 0
-0.140702 -0.043783 0
-0.134435 +0.000368 0
-0.103264 +0.061950 0
-0.117269 +0.041783 0
-0.088499 +0.082165 0
-0.068414 +0.057644 0
-0.070991 +0.080376 0
-0.065440 +0.034242 0
-0.100104 -0.098759 0
-0.054005 -0.054570 0
-0.143784 -0.121618 0
-0.178898 -0.076044 0
-0.185595 -0.107964 0
-0.159683 -0.030382 0
-0.096729 +0.122201 0
-0.115404 +0.076448 0
-0.077814 +0.152075 0
-0.010555 +0.117290 0
-0.030846 +0.150861 0
-0.004694 +0.064400 0
-0.041677 +0.006979 0
-0.052161 +0.008735 0
-0.030979 +0.005188 0
-0.158577 -0.096241 0
-0.150678 -0.081346 0
-0.166644 -0.111418 0
-0.135176 +0.022637 0
-0.133129 +0.022294 0
-0.137183 +0.022973 0
-0.063390 +0.133412 0
-0.068062 +0.117977 0
-0.058646 +0.149145 0
+0.131794 -0.022070 0
+0.053163 -0.008903 0
+0.206730 -0.034619 0
-0.260568 -0.240331 0
-0.219617 -0.193493 0
-0.289914 -0.255310 0
-0.098057 +0.016421 0
-0.126984 +0.021265 0
-0.054150 +0.009068 0
-0.040449 +0.290740 0
-0.041121 +0.237156 0
-0.054374 +0.312965 0
+0.184311 +0.002774 0
+0.184182 +0.214917 0
+0.150047 -0.187510 0
+0.057231 -0.215260 0
+0.074634 -0.280719 0
+0.030987 -0.116552 0
-0.080996 -0.116070 0
-0.102377 -0.129342 0
-0.058848 -0.101981 0
-0.019491 -0.126370 0
-0.027842 -0.107173 0
-0.011173 -0.144615 0
-0.040450 -0.174310 0
-0.021868 -0.168453 0
-0.058513 -0.179215 0
-0.099919 -0.164351 0
-0.088003 -0.174277 0
-0.111549 -0.153435 0
-0.109126 -0.064823 0
-0.147835 -0.106379 0
-0.059440 -0.034125 0
+0.044712 -0.090585 0
+0.025272 -0.048311 0
+0.046184 -0.138870 0
-0.009640 -0.205364 0
+0.015917 -0.200468 0
-0.042029 -0.199534 0
-0.150801 -0.181725 0
-0.118097 -0.186795 0
-0.169245 -0.169461 0
-0.146366 -0.142173 0
-0.134628 -0.141714 0
-0.158337 -0.142663 0
-0.024260 -0.058531 0
-0.030362 -0.073254 0
-0.018033 -0.043507 0
+0.017160 -0.169557 0
+0.007301 -0.165482 0
+0.027197 -0.173733 0
-0.078685 -0.189840 0
-0.077493 -0.186965 0
-0.079853 -0.192659 0
-0.276685 -0.179711 0
-0.229209 -0.157414 0
-0.302525 -0.207877 0
+0.076716 +0.185090 0
+0.030946 +0.074661 0
+0.120336 +0.290330 0
+0.101465 -0.243036 0
+0.077435 -0.208765 0
+0.102117 -0.275638 0
-0.057078 -0.137710 0
-0.073916 -0.178335 0
-0.031520 -0.076048 0
+0.000000 +0.000000 0
+0.000000 +0.000000 0
+0.000000 +0.000000 0
+0.057231 -0.215260 0
+0.030987 -0.116552 0
+0.074634 -0.280719 0
+0.235181 +0.131127 0
+0.243618 +0.134497 0
+0.224728 +0.126398 0
+0.200038 +0.070165 0
+0.206663 +0.095353 0
+0.192534 +0.045056 0
+0.204885 +0.017501 0
+0.195310 +0.019232 0
+0.212796 +0.015014 0
+0.236563 +0.073821 0
+0.228279 +0.042596 0
+0.243809 +0.105212 0
+0.248051 +0.214429 0
+0.260210 +0.215788 0
+0.224001 +0.184335 0
+0.154746 +0.057161 0
+0.171044 +0.096588 0
+0.148837 +0.021902 0
+0.171944 -0.063395 0
+0.159171 -0.042229 0
+0.189135 -0.065040 0
+0.243688 +0.064980 0
+0.227266 +0.002706 0
+0.255604 +0.131769 0
+0.257304 +0.161605 0
+0.253902 +0.148993 0
+0.260776 +0.174474 0
+0.205202 +0.132694 0
+0.209030 +0.126968 0
+0.201301 +0.138513 0
+0.167866 +0.002921 0
+0.176094 +0.011297 0
+0.159421 -0.005587 0
+0.214612 -0.015182 0
+0.216995 -0.001537 0
+0.212114 -0.029159 0
+0.248102 +0.319085 0
+0.264205 +0.257031 0
+0.212187 +0.362142 0
+0.113130 +0.125059 0
+0.160143 +0.146994 0
+0.058643 +0.074495 0
+0.054912 -0.050153 0
+0.101306 -0.041341 0
+0.020391 -0.035462 0
+0.150146 -0.204976 0
+0.183179 -0.126091 0
+0.114953 -0.265603 0
-0.184311 -0.002774 0
-0.150047 +0.187510 0
-0.184182 -0.214917 0
-0.243848 -0.374499 0
-0.247353 -0.433147 0
-0.148524 -0.215666 0
+0.000000 +0.000000 0
+0.000000 +0.000000 0
+0.000000 +0.000000 0
-0.204885 -0.017501 0
-0.195310 -0.019232 0
-0.212796 -0.015014 0
-0.236563 -0.073821 0
-0.228279 -0.042596 0
-0.243809 -0.105212 0
-0.235181 -0.131127 0
-0.243618 -0.134497 0
-0.224728 -0.126398 0
-0.200038 -0.070165 0
-0.206663 -0.095353 0
-0.192534 -0.045056 0
-0.171944 +0.063395 0
-0.159171 +0.042229 0
-0.189135 +0.065040 0
-0.243688 -0.064980 0
-0.227266 -0.002706 0
-0.255604 -0.131769 0
-0.248051 -0.214429 0
-0.260210 -0.215788 0
-0.224001 -0.184335 0
-0.154746 -0.057161 0
-0.171044 -0.096588 0
-0.148837 -0.021902 0
-0.167866 -0.002921 0
-0.176094 -0.011297 0
-0.159421 +0.005587 0
-0.214612 +0.015182 0
-0.216995 +0.001537 0
-0.212114 +0.029159 0
-0.257304 -0.161605 0
-0.253902 -0.148993 0
-0.260776 -0.174474 0
-0.205202 -0.132694 0
-0.209030 -0.126968 0
-0.201301 -0.138513 0
-0.054912 +0.050153 0
-0.101306 +0.041341 0
-0.020391 +0.035462 0
-0.150146 +0.204976 0
-0.183179 +0.126091 0
-0.114953 +0.265603 0
-0.248102 -0.319085 0
-0.264205 -0.257031 0
-0.212187 -0.362142 0
-0.113130 -0.125059 0
-0.160143 -0.146994 0
-0.058643 -0.074495 0
+0.216662 +0.169394 0
+0.117311 +0.091718 0
+0.282548 +0.220905 0
+0.158236 -0.060137 0
+0.275920 +0.116177 0
-0.006321 -0.244701 0
+0.040450 +0.174310 0
+0.021868 +0.168453 0
+0.058513 +0.179215 0
+0.099919 +0.164351 0
+0.088003 +0.174277 0
+0.111549 +0.153435 0
+0.080996 +0.116070 0
+0.102377 +0.129342 0
+0.058848 +0.101981 0
+0.019491 +0.126370 0
+0.027842 +0.107173 0
+0.011173 +0.144615 0
+0.009640 +0.205364 0
-0.015917 +0.200468 0
+0.042029 +0.199534 0
+0.150801 +0.181725 0
+0.118097 +0.186795 0
+0.169245 +0.169461 0
+0.109126 +0.064823 0
+0.147835 +0.106379 0
+0.059440 +0.034125 0
-0.044712 +0.090585 0
-0.025272 +0.048311 0
-0.046184 +0.138870 0
-0.017160 +0.169557 0
-0.007301 +0.165482 0
-0.027197 +0.173733 0
+0.078685 +0.189840 0
+0.077493 +0.186965 0
+0.079853 +0.192659 0
+0.146366 +0.142173 0
+0.134628 +0.141714 0
+0.158337 +0.142663 0
+0.024260 +0.058531 0
+0.030362 +0.073254 0
+0.018033 +0.043507 0
-0.101465 +0.243036 0
-0.077435 +0.208765 0
-0.102117 +0.275638 0
+0.057078 +0.137710 0
+0.073916 +0.178335 0
+0.031520 +0.076048 0
+0.276685 +0.179711 0
+0.229209 +0.157414 0
+0.302525 +0.207877 0
-0.076716 -0.185090 0
-0.030946 -0.074661 0
-0.120336 -0.290330 0
-0.122095 -0.236785 0
-0.015856 -0.317219 0
-0.215402 -0.097491 0
+0.077299 +0.244286 0
-0.111870 +0.152296 0
+0.232097 +0.281007 0
+0.103264 -0.061950 0
+0.117269 -0.041783 0
+0.088499 -0.082165 0
+0.068414 -0.057644 0
+0.070991 -0.080376 0
+0.065440 -0.034242 0
+0.104216 +0.028735 0
+0.083488 +0.009302 0
+0.124080 +0.047709 0
+0.137880 +0.021568 0
+0.140702 +0.043783 0
+0.134435 -0.000368 0
+0.096729 -0.122201 0
+0.115404 -0.076448 0
+0.077814 -0.152075 0
+0.010555 -0.117290 0
+0.030846 -0.150861 0
+0.004694 -0.064400 0
+0.100104 +0.098759 0
+0.054005 +0.054570 0
+0.143784 +0.121618 0
+0.178898 +0.076044 0
+0.185595 +0.107964 0
+0.159683 +0.030382 0
+0.135176 -0.022637 0
+0.133129 -0.022294 0
+0.137183 -0.022973 0
+0.063390 -0.133412 0
+0.068062 -0.117977 0
+0.058646 -0.149145 0
+0.041677 -0.006979 0
+0.052161 -0.008735 0
+0.030979 -0.005188 0
+0.158577 +0.096241 0
+0.150678 +0.081346 0
+0.166644 +0.111418 0
+0.098057 -0.016421 0
+0.126984 -0.021265 0
+0.054150 -0.009068 0
+0.040449 -0.290740 0
+0.041121 -0.237156 0
+0.054374 -0.312965 0
-0.131794 +0.022070 0
-0.053163 +0.008903 0
-0.206730 +0.034619 0
+0.260568 +0.240331 0
+0.219617 +0.193493 0
+0.289914 +0.255310 0
+0.000000 +0.000000 0
+0.000000 +0.000000 0
+0.000000 +0.000000 0
-0.324784 -0.070075 0
-0.192347 -0.050837 0
-0.352902 -0.036150 0
-0.142071 -0.253760 0
-0.146164 -0.265632 0
-0.136554 -0.240230 0
-0.162077 -0.212948 0
-0.146102 -0.219700 0
-0.177510 -0.205005 0
-0.211962 -0.218463 0
-0.203024 -0.208031 0
-0.218978 -0.227175 0
-0.187640 -0.257835 0
-0.206211 -0.246627 0
-0.168461 -0.267587 0
-0.084855 -0.264169 0
-0.095405 -0.287503 0
-0.085797 -0.233753 0
-0.126648 -0.162842 0
-0.107251 -0.178316 0
-0.154694 -0.158084 0
-0.257074 -0.180494 0
-0.228053 -0.169096 0
-0.265646 -0.195343 0
-0.188420 -0.272855 0
-0.225637 -0.244480 0
-0.150236 -0.292437 0
-0.134063 -0.287787 0
-0.141632 -0.281922 0
-0.126271 -0.293719 0
-0.111375 -0.215398 0
-0.120458 -0.220556 0
-0.102091 -0.210045 0
-0.192990 -0.178625 0
-0.192980 -0.187336 0
-0.192994 -0.169759 0
-0.239887 -0.227115 0
-0.232104 -0.230982 0
-0.247829 -0.223169 0
-0.008232 -0.328800 0
-0.064623 -0.319830 0
+0.041538 -0.323000 0
-0.013933 -0.103978 0
-0.048238 -0.158259 0
+0.002238 -0.049654 0
-0.129247 -0.064438 0
-0.169736 -0.110915 0
-0.071254 -0.027062 0
-0.303179 -0.111925 0
-0.286422 -0.173467 0
-0.298581 -0.037192 0
-0.078102 -0.402255 0
-0.120514 -0.454388 0
-0.037932 -0.234186 0
+0.000000 +0.000000 0
+0.000000 +0.000000 0
+0.000000 +0.000000 0
+0.000000 +0.000000 0
+0.000000 +0.000000 0
+0.000000 +0.000000 0
-0.167545 -0.385524 0
-0.161477 -0.364301 0
-0.171862 -0.404389 0
-0.153046 -0.387952 0
-0.163913 -0.405720 0
-0.141875 -0.367583 0
-0.125652 -0.315516 0
-0.128741 -0.331166 0
-0.121207 -0.297953 0
-0.135234 -0.313912 0
-0.125488 -0.297236 0
-0.144677 -0.328497 0
-0.195492 -0.412117 0
-0.176169 -0.364244 0
-0.199369 -0.444628 0
-0.149340 -0.419845 0
-0.171169 -0.449351 0
-0.129046 -0.372135 0
-0.091235 -0.240173 0
-0.099249 -0.273046 0
-0.088661 -0.222977 0
-0.106781 -0.237570 0
-0.095690 -0.221800 0
-0.125289 -0.268685 0
-0.153045 -0.328869 0
-0.153640 -0.335305 0
-0.152456 -0.322233 0
-0.182930 -0.441346 0
-0.178814 -0.431417 0
-0.187129 -0.451478 0
-0.121747 -0.334110 0
-0.126218 -0.339897 0
-0.117116 -0.328151 0
-0.102740 -0.247876 0
-0.109109 -0.263243 0
-0.096217 -0.232138 0
-0.100271 -0.173425 0
-0.132211 -0.252053 0
-0.055252 -0.087248 0
-0.202831 -0.489361 0
-0.202590 -0.488781 0
-0.187925 -0.453398 0
-0.047177 -0.182316 0
-0.080332 -0.260741 0
-0.019551 -0.093227 0
-0.025330 -0.061112 0
-0.055021 -0.132747 0
-0.006679 -0.016114 0
+0.216662 +0.169394 0
+0.282548 +0.220905 0
+0.117311 +0.091718 0
+0.000000 +0.000000 0
+0.000000 +0.000000 0
+0.000000 +0.000000 0
+0.148632 -0.138326 0
+0.130604 -0.167912 0
+0.165628 -0.108560 0
+0.164723 -0.079396 0
+0.173535 -0.079709 0
+0.155049 -0.077904 0
+0.119683 -0.123706 0
+0.132616 -0.099506 0
+0.105922 -0.147699 0
+0.103008 -0.187761 0
+0.097577 -0.180372 0
+0.107738 -0.193335 0
+0.161685 -0.132864 0
+0.120282 -0.194715 0
+0.195667 -0.073531 0
+0.198766 +0.001316 0
+0.215000 -0.002637 0
+0.171244 -0.013103 0
+0.090350 -0.098205 0
+0.112539 -0.065673 0
+0.073970 -0.137618 0
+0.049635 -0.264280 0