# vtk DataFile Version 2.0
MyTitle
ASCII
DATASET UNSTRUCTURED_GRID
POINTS 1761 double
0.000000 0.000000 0.000000
1.000000 0.000000 0.000000
1.000000 1.000000 0.000000
0.000000 1.000000 0.000000
0.420000 0.420000 0.000000
0.580000 0.420000 0.000000
0.580000 0.580000 0.000000
0.420000 0.580000 0.000000
0.358579 0.358579 0.000000
0.641421 0.358579 0.000000
0.641421 0.641421 0.000000
0.358579 0.641421 0.000000
2.000000 0.000000 0.000000
2.000000 1.000000 0.000000
1.420000 0.420000 0.000000
1.580000 0.420000 0.000000
1.580000 0.580000 0.000000
1.420000 0.580000 0.000000
1.358579 0.358579 0.000000
1.641421 0.358579 0.000000
1.641421 0.641421 0.000000
1.358579 0.641421 0.000000
3.000000 0.000000 0.000000
3.000000 1.000000 0.000000
2.420000 0.420000 0.000000
2.580000 0.420000 0.000000
2.580000 0.580000 0.000000
2.420000 0.580000 0.000000
2.358579 0.358579 0.000000
2.641421 0.358579 0.000000
2.641421 0.641421 0.000000
2.358579 0.641421 0.000000
4.000000 0.000000 0.000000
4.000000 1.000000 0.000000
3.420000 0.420000 0.000000
3.580000 0.420000 0.000000
3.580000 0.580000 0.000000
3.420000 0.580000 0.000000
3.358579 0.358579 0.000000
3.641421 0.358579 0.000000
3.641421 0.641421 0.000000
3.358579 0.641421 0.000000
1.000000 2.000000 0.000000
0.000000 2.000000 0.000000
0.420000 1.420000 0.000000
0.580000 1.420000 0.000000
0.580000 1.580000 0.000000
0.420000 1.580000 0.000000
0.358579 1.358579 0.000000
0.641421 1.358579 0.000000
0.641421 1.641421 0.000000
0.358579 1.641421 0.000000
2.000000 2.000000 0.000000
1.420000 1.420000 0.000000
1.580000 1.420000 0.000000
1.580000 1.580000 0.000000
1.420000 1.580000 0.000000
1.358579 1.358579 0.000000
1.641421 1.358579 0.000000
1.641421 1.641421 0.000000
1.358579 1.641421 0.000000
3.000000 2.000000 0.000000
2.420000 1.420000 0.000000
2.580000 1.420000 0.000000
2.580000 1.580000 0.000000
2.420000 1.580000 0.000000
2.358579 1.358579 0.000000
2.641421 1.358579 0.000000
2.641421 1.641421 0.000000
2.358579 1.641421 0.000000
4.000000 2.000000 0.000000
3.420000 1.420000 0.000000
3.580000 1.420000 0.000000
3.580000 1.580000 0.000000
3.420000 1.580000 0.000000
3.358579 1.358579 0.000000
3.641421 1.358579 0.000000
3.641421 1.641421 0.000000
3.358579 1.641421 0.000000
1.000000 3.000000 0.000000
0.000000 3.000000 0.000000
0.420000 2.420000 0.000000
0.580000 2.420000 0.000000
0.580000 2.580000 0.000000
0.420000 2.580000 0.000000
0.358579 2.358579 0.000000
0.641421 2.358579 0.000000
0.641421 2.641421 0.000000
0.358579 2.641421 0.000000
2.000000 3.000000 0.000000
1.420000 2.420000 0.000000
1.580000 2.420000 0.000000
1.580000 2.580000 0.000000
1.420000 2.580000 0.000000
1.358579 2.358579 0.000000
1.641421 2.358579 0.000000
1.641421 2.641421 0.000000
1.358579 2.641421 0.000000
3.000000 3.000000 0.000000
2.420000 2.420000 0.000000
2.580000 2.420000 0.000000
2.580000 2.580000 0.000000
2.420000 2.580000 0.000000
2.358579 2.358579 0.000000
2.641421 2.358579 0.000000
2.641421 2.641421 0.000000
2.358579 2.641421 0.000000
4.000000 3.000000 0.000000
3.420000 2.420000 0.000000
3.580000 2.420000 0.000000
3.580000 2.580000 0.000000
3.420000 2.580000 0.000000
3.358579 2.358579 0.000000
3.641421 2.358579 0.000000
3.641421 2.641421 0.000000
3.358579 2.641421 0.000000
1.000000 4.000000 0.000000
0.000000 4.000000 0.000000
0.420000 3.420000 0.000000
0.580000 3.420000 0.000000
0.580000 3.580000 0.000000
0.420000 3.580000 0.000000
0.358579 3.358579 0.000000
0.641421 3.358579 0.000000
0.641421 3.641421 0.000000
0.358579 3.641421 0.000000
2.000000 4.000000 0.000000
1.420000 3.420000 0.000000
1.580000 3.420000 0.000000
1.580000 3.580000 0.000000
1.420000 3.580000 0.000000
1.358579 3.358579 0.000000
1.641421 3.358579 0.000000
1.641421 3.641421 0.000000
1.358579 3.641421 0.000000
3.000000 4.000000 0.000000
2.420000 3.420000 0.000000
2.580000 3.420000 0.000000
2.580000 3.580000 0.000000
2.420000 3.580000 0.000000
2.358579 3.358579 0.000000
2.641421 3.358579 0.000000
2.641421 3.641421 0.000000
2.358579 3.641421 0.000000
4.000000 4.000000 0.000000
3.420000 3.420000 0.000000
3.580000 3.420000 0.000000
3.580000 3.580000 0.000000
3.420000 3.580000 0.000000
3.358579 3.358579 0.000000
3.641421 3.358579 0.000000
3.641421 3.641421 0.000000
3.358579 3.641421 0.000000
0.500000 0.000000 0.000000
0.250000 0.000000 0.000000
0.750000 0.000000 0.000000
1.000000 0.500000 0.000000
1.000000 0.250000 0.000000
1.000000 0.750000 0.000000
0.500000 1.000000 0.000000
0.750000 1.000000 0.000000
0.250000 1.000000 0.000000
0.000000 0.500000 0.000000
0.000000 0.750000 0.000000
0.000000 0.250000 0.000000
0.500000 0.420000 0.000000
0.460000 0.420000 0.000000
0.540000 0.420000 0.000000
0.580000 0.500000 0.000000
0.580000 0.460000 0.000000
0.580000 0.540000 0.000000
0.500000 0.580000 0.000000
0.540000 0.580000 0.000000
0.460000 0.580000 0.000000
0.420000 0.500000 0.000000
0.420000 0.540000 0.000000
0.420000 0.460000 0.000000
0.500000 0.300001 0.000000
0.423464 0.315225 0.000000
0.576536 0.315225 0.000000
0.699999 0.500000 0.000000
0.684775 0.423464 0.000000
0.684775 0.576536 0.000000
0.500000 0.699999 0.000000
0.576536 0.684775 0.000000
0.423464 0.684775 0.000000
0.300001 0.500000 0.000000
0.315225 0.576536 0.000000
0.315225 0.423464 0.000000
0.389290 0.389290 0.000000
0.404645 0.404645 0.000000
0.373934 0.373934 0.000000
0.610710 0.389290 0.000000
0.595355 0.404645 0.000000
0.626066 0.373934 0.000000
0.610710 0.610710 0.000000
0.595355 0.595355 0.000000
0.626066 0.626066 0.000000
0.389290 0.610710 0.000000
0.404645 0.595355 0.000000
0.373934 0.626066 0.000000
0.179290 0.179290 0.000000
0.268934 0.268934 0.000000
0.089645 0.089645 0.000000
0.820710 0.179290 0.000000
0.731066 0.268934 0.000000
0.910355 0.089645 0.000000
0.820710 0.820710 0.000000
0.731066 0.731066 0.000000
0.910355 0.910355 0.000000
0.179290 0.820710 0.000000
0.268934 0.731066 0.000000
0.089645 0.910355 0.000000
1.500000 0.000000 0.000000
1.250000 0.000000 0.000000
1.750000 0.000000 0.000000
2.000000 0.500000 0.000000
2.000000 0.250000 0.000000
2.000000 0.750000 0.000000
1.500000 1.000000 0.000000
1.750000 1.000000 0.000000
1.250000 1.000000 0.000000
1.500000 0.420000 0.000000
1.460000 0.420000 0.000000
1.540000 0.420000 0.000000
1.580000 0.500000 0.000000
1.580000 0.460000 0.000000
1.580000 0.540000 0.000000
1.500000 0.580000 0.000000
1.540000 0.580000 0.000000
1.460000 0.580000 0.000000
1.420000 0.500000 0.000000
1.420000 0.540000 0.000000
1.420000 0.460000 0.000000
1.500000 0.300001 0.000000
1.423464 0.315225 0.000000
1.576536 0.315225 0.000000
1.699999 0.500000 0.000000
1.684775 0.423464 0.000000
1.684775 0.576536 0.000000
1.500000 0.699999 0.000000
1.576536 0.684775 0.000000
1.423464 0.684775 0.000000
1.300001 0.500000 0.000000
1.315225 0.576536 0.000000
1.315225 0.423464 0.000000
1.389290 0.389290 0.000000
1.404645 0.404645 0.000000
1.373934 0.373934 0.000000
1.610710 0.389290 0.000000
1.595355 0.404645 0.000000
1.626066 0.373934 0.000000
1.610710 0.610710 0.000000
1.595355 0.595355 0.000000
1.626066 0.626066 0.000000
1.389290 0.610710 0.000000
1.404645 0.595355 0.000000
1.373934 0.626066 0.000000
1.179290 0.179290 0.000000
1.268934 0.268934 0.000000
1.089645 0.089645 0.000000
1.820710 0.179290 0.000000
1.731066 0.268934 0.000000
1.910355 0.089645 0.000000
1.820710 0.820710 0.000000
1.731066 0.731066 0.000000
1.910355 0.910355 0.000000
1.179290 0.820710 0.000000
1.268934 0.731066 0.000000
1.089645 0.910355 0.000000
2.500000 0.000000 0.000000
2.250000 0.000000 0.000000
2.750000 0.000000 0.000000
3.000000 0.500000 0.000000
3.000000 0.250000 0.000000
3.000000 0.750000 0.000000
2.500000 1.000000 0.000000
2.750000 1.000000 0.000000
2.250000 1.000000 0.000000
2.500000 0.420000 0.000000
2.460000 0.420000 0.000000
2.540000 0.420000 0.000000
2.580000 0.500000 0.000000
2.580000 0.460000 0.000000
2.580000 0.540000 0.000000
2.500000 0.580000 0.000000
2.540000 0.580000 0.000000
2.460000 0.580000 0.000000
2.420000 0.500000 0.000000
2.420000 0.540000 0.000000
2.420000 0.460000 0.000000
2.500000 0.300001 0.000000
2.423464 0.315225 0.000000
2.576536 0.315225 0.000000
2.699999 0.500000 0.000000
2.684775 0.423464 0.000000
2.684775 0.576536 0.000000
2.500000 0.699999 0.000000
2.576536 0.684775 0.000000
2.423464 0.684775 0.000000
2.300001 0.500000 0.000000
2.315225 0.576536 0.000000
2.315225 0.423464 0.000000
2.389289 0.389289 0.000000
2.404645 0.404645 0.000000
2.373934 0.373934 0.000000
2.610711 0.389289 0.000000
2.595355 0.404645 0.000000
2.626066 0.373934 0.000000
2.610711 0.610711 0.000000
2.595355 0.595355 0.000000
2.626066 0.626066 0.000000
2.389289 0.610711 0.000000
2.404645 0.595355 0.000000
2.373934 0.626066 0.000000
2.179290 0.179290 0.000000
2.268934 0.268934 0.000000
2.089645 0.089645 0.000000
2.820710 0.179290 0.000000
2.731066 0.268934 0.000000
2.910355 0.089645 0.000000
2.820710 0.820710 0.000000
2.731066 0.731066 0.000000
2.910355 0.910355 0.000000
2.179290 0.820710 0.000000
2.268934 0.731066 0.000000
2.089645 0.910355 0.000000
3.500000 0.000000 0.000000
3.250000 0.000000 0.000000
3.750000 0.000000 0.000000
4.000000 0.500000 0.000000
4.000000 0.250000 0.000000
4.000000 0.750000 0.000000
3.500000 1.000000 0.000000
3.750000 1.000000 0.000000
3.250000 1.000000 0.000000
3.500000 0.420000 0.000000
3.460000 0.420000 0.000000
3.540000 0.420000 0.000000
3.580000 0.500000 0.000000
3.580000 0.460000 0.000000
3.580000 0.540000 0.000000
3.500000 0.580000 0.000000
3.540000 0.580000 0.000000
3.460000 0.580000 0.000000
3.420000 0.500000 0.000000
3.420000 0.540000 0.000000
3.420000 0.460000 0.000000
3.500000 0.300001 0.000000
3.423464 0.315225 0.000000
3.576536 0.315225 0.000000
3.699999 0.500000 0.000000
3.684775 0.423464 0.000000
3.684775 0.576536 0.000000
3.500000 0.699999 0.000000
3.576536 0.684775 0.000000
3.423464 0.684775 0.000000
3.300001 0.500000 0.000000
3.315225 0.576536 0.000000
3.315225 0.423464 0.000000
3.389289 0.389289 0.000000
3.404645 0.404645 0.000000
3.373934 0.373934 0.000000
3.610711 0.389289 0.000000
3.595355 0.404645 0.000000
3.626066 0.373934 0.000000
3.610711 0.610711 0.000000
[...]
POINT_DATA 1761
VECTORS sol double
+0.000000 +0.000000 0
+0.000000 +0.000000 0
-0.022608 -0.199460 0
+0.000000 +0.000000 0
-0.006334 -0.055887 0
-0.011789 -0.076867 0
-0.011094 -0.097874 0
-0.004988 -0.071152 0
-0.004719 -0.041638 0
-0.013570 -0.074323 0
-0.013036 -0.115016 0
-0.002194 -0.064764 0
+0.000000 +0.000000 0
-0.264482 -0.349840 0
-0.085895 -0.174889 0
-0.107030 -0.189080 0
-0.134768 -0.242817 0
-0.106670 -0.224297 0
-0.068782 -0.147353 0
-0.101214 -0.169274 0
-0.154704 -0.266494 0
-0.100969 -0.231328 0
+0.000000 +0.000000 0
-0.351426 -0.295288 0
-0.199162 -0.215930 0
-0.204721 -0.209518 0
-0.268020 -0.271319 0
-0.259958 -0.279301 0
-0.169856 -0.189279 0
-0.178105 -0.179213 0
-0.290578 -0.286586 0
-0.274671 -0.301456 0
+0.000000 +0.000000 0
+0.000000 +0.000000 0
-0.130616 -0.111497 0
-0.098466 -0.082737 0
-0.130178 -0.107636 0
-0.172443 -0.144896 0
-0.122893 -0.106183 0
-0.073361 -0.061642 0
-0.122161 -0.099726 0
-0.202645 -0.170274 0
+0.232510 +0.067760 0
+0.000000 +0.000000 0
+0.060159 -0.052167 0
+0.072929 -0.073388 0
+0.102302 -0.043618 0
+0.082188 -0.030089 0
+0.046343 -0.050619 0
+0.064267 -0.092488 0
+0.120503 -0.035250 0
+0.080110 -0.016916 0
+0.000000 -0.000000 0
-0.022647 -0.199811 0
-0.069621 -0.223832 0
-0.018507 -0.163282 0
+0.028197 -0.141640 0
-0.023666 -0.208800 0
-0.106167 -0.252349 0
-0.016384 -0.144553 0
+0.065292 -0.108280 0
-0.232510 -0.067760 0
-0.325105 -0.298287 0
-0.352043 -0.295806 0
-0.318813 -0.242768 0
-0.287685 -0.241728 0
-0.323209 -0.315601 0
-0.367881 -0.309114 0
-0.312178 -0.218286 0
-0.254685 -0.214000 0
+0.000000 +0.000000 0
-0.256466 -0.169383 0
-0.195325 -0.126622 0
-0.186989 -0.108535 0
-0.244707 -0.144746 0
-0.279948 -0.192802 0
-0.170699 -0.113871 0
-0.158191 -0.086364 0
-0.256967 -0.145255 0
+0.351426 +0.295288 0
+0.000000 +0.000000 0
+0.186989 +0.108535 0
+0.244707 +0.144746 0
+0.256466 +0.169383 0
+0.195325 +0.126622 0
+0.158191 +0.086364 0
+0.256967 +0.145255 0
+0.279948 +0.192802 0
+0.170699 +0.113871 0
+0.264482 +0.349840 0
+0.318813 +0.242768 0
+0.287685 +0.241728 0
+0.325105 +0.298287 0
+0.352043 +0.295806 0
+0.312178 +0.218286 0
+0.254685 +0.214000 0
+0.323209 +0.315601 0
+0.367881 +0.309114 0
+0.022608 +0.199460 0
+0.018507 +0.163282 0
-0.028197 +0.141640 0
+0.022647 +0.199811 0
+0.069621 +0.223832 0
+0.016384 +0.144553 0
-0.065292 +0.108280 0
+0.023666 +0.208800 0
+0.106167 +0.252349 0
+0.000000 +0.000000 0
-0.102302 +0.043618 0
-0.082188 +0.030089 0
-0.060159 +0.052167 0
-0.072929 +0.073388 0
-0.120503 +0.035250 0
-0.080110 +0.016916 0
-0.046343 +0.050619 0
-0.064267 +0.092488 0
+0.000000 +0.000000 0
+0.000000 +0.000000 0
+0.130178 +0.107636 0
+0.172443 +0.144896 0
+0.130616 +0.111497 0
+0.098466 +0.082737 0
+0.122161 +0.099726 0
+0.202645 +0.170274 0
+0.122893 +0.106183 0
+0.073361 +0.061642 0
+0.000000 +0.000000 0
+0.268020 +0.271319 0
+0.259958 +0.279301 0
+0.199162 +0.215930 0
+0.204721 +0.209518 0
+0.290578 +0.286586 0
+0.274671 +0.301456 0
+0.169856 +0.189279 0
+0.178105 +0.179213 0
+0.000000 +0.000000 0
+0.134768 +0.242817 0
+0.106670 +0.224297 0
+0.085895 +0.174889 0
+0.107030 +0.189080 0
+0.154704 +0.266494 0
+0.100969 +0.231328 0
+0.068782 +0.147353 0
+0.101214 +0.169274 0
+0.000000 +0.000000 0
+0.011094 +0.097874 0
+0.004988 +0.071152 0
+0.006334 +0.055887 0
+0.011789 +0.076867 0
+0.013036 +0.115016 0
+0.002194 +0.064764 0
+0.004719 +0.041638 0
+0.013570 +0.074323 0
+0.000000 +0.000000 0
+0.000000 +0.000000 0
+0.000000 +0.000000 0
-0.043424 -0.149017 0
-0.026212 -0.081374 0
-0.043445 -0.190383 0
+0.015229 -0.099733 0
+0.004891 -0.149768 0
+0.011342 -0.049819 0
+0.000000 +0.000000 0
+0.000000 +0.000000 0
+0.000000 +0.000000 0
-0.008762 -0.066413 0
-0.007478 -0.061155 0
-0.010198 -0.071652 0
-0.011942 -0.088169 0
-0.011982 -0.082704 0
-0.011646 -0.093228 0
-0.007635 -0.084550 0
-0.009261 -0.091224 0
-0.006217 -0.077859 0
-0.006033 -0.064119 0
-0.005608 -0.067796 0
-0.006270 -0.060140 0
-0.007571 -0.049511 0
-0.005865 -0.044022 0
-0.010098 -0.059467 0
-0.018500 -0.106097 0
-0.016746 -0.090850 0
-0.016978 -0.114608 0
-0.004188 -0.094071 0
-0.008163 -0.107201 0
-0.002491 -0.078872 0
-0.003240 -0.045872 0
-0.002675 -0.053229 0
-0.003930 -0.042396 0
-0.005514 -0.048646 0
-0.005918 -0.052216 0
-0.005105 -0.045037 0
-0.012733 -0.075838 0
-0.012285 -0.076448 0
-0.013203 -0.075241 0
-0.012057 -0.106376 0
-0.011574 -0.102112 0
-0.012544 -0.110674 0
-0.003588 -0.068154 0
-0.004283 -0.069724 0
-0.002869 -0.066557 0
-0.001231 -0.010864 0
-0.002764 -0.024388 0
-0.000313 -0.002760 0
-0.013005 -0.049454 0
-0.014362 -0.064631 0
-0.008277 -0.027726 0
-0.018438 -0.162668 0
-0.015799 -0.139390 0
-0.020701 -0.182633 0
+0.003352 -0.035710 0
+0.001193 -0.051561 0
+0.003073 -0.018189 0
+0.000000 +0.000000 0
+0.000000 +0.000000 0
+0.000000 +0.000000 0
-0.186991 -0.247340 0
-0.101112 -0.133744 0
-0.243707 -0.322359 0
-0.127620 -0.288685 0
-0.195987 -0.324061 0
-0.067958 -0.246128 0
-0.096332 -0.182244 0
-0.091070 -0.178626 0
-0.101659 -0.185731 0
-0.122165 -0.217732 0
-0.114892 -0.203818 0
-0.128796 -0.230742 0
-0.120526 -0.233876 0
-0.127610 -0.238430 0
-0.113543 -0.229162 0
-0.097457 -0.201283 0
-0.102373 -0.213236 0
-0.091946 -0.188475 0
-0.072439 -0.135314 0
-0.068121 -0.136215 0
-0.083375 -0.146547 0
-0.141336 -0.228536 0
-0.121819 -0.198332 0
-0.153050 -0.252136 0
-0.131512 -0.262487 0
-0.146232 -0.269003 0
-0.115323 -0.248946 0
-0.080109 -0.187589 0
-0.088901 -0.209744 0
-0.073313 -0.165673 0
-0.077237 -0.161160 0
-0.081523 -0.168031 0
-0.072922 -0.154233 0
-0.104421 -0.179474 0
-0.105840 -0.184386 0
-0.103005 -0.174533 0
-0.144642 -0.254731 0
-0.139681 -0.248820 0
-0.149622 -0.260672 0
-0.104082 -0.228100 0
-0.105473 -0.226315 0
-0.102667 -0.229883 0
-0.027410 -0.068508 0
-0.046700 -0.107406 0
-0.011937 -0.032567 0
-0.063850 -0.093691 0
-0.085652 -0.134027 0
-0.035025 -0.048675 0
-0.212344 -0.321018 0
-0.183637 -0.296041 0
-0.239097 -0.338515 0
-0.068746 -0.229213 0
-0.086980 -0.233544 0
-0.046871 -0.217249 0
+0.000000 +0.000000 0
+0.000000 +0.000000 0
+0.000000 +0.000000 0
-0.221021 -0.200774 0
-0.116782 -0.107769 0
-0.301208 -0.265502 0
-0.360097 -0.356436 0
-0.370947 -0.334428 0
-0.321695 -0.360696 0
-0.202648 -0.213228 0
-0.201074 -0.214704 0
-0.203867 -0.211498 0
-0.237809 -0.242186 0
-0.221596 -0.226258 0
-0.253295 -0.257219 0
-0.264909 -0.275953 0
-0.266697 -0.273796 0
-0.262654 -0.277786 0
-0.231036 -0.249460 0
-0.245887 -0.264865 0
-0.215437 -0.233120 0
-0.149035 -0.157637 0
-0.153701 -0.167042 0
-0.157540 -0.162274 0
-0.238405 -0.233721 0
-0.206540 -0.204499 0
-0.267608 -0.261824 0
-0.303200 -0.312522 0
-0.302278 -0.303430 0
-0.292798 -0.311717 0
-0.221983 -0.252039 0
-0.249415 -0.280219 0
-0.193956 -0.219355 0
-0.184616 -0.202845 0
-0.191921 -0.209473 0
-0.177251 -0.196171 0
-0.191647 -0.194502 0
-0.198264 -0.202053 0
-0.184967 -0.186886 0
-0.279447 -0.279207 0
-0.273808 -0.275373 0
-0.285118 -0.283054 0
-0.267608 -0.290566 0
-0.263910 -0.285024 0
-0.271336 -0.296144 0
-0.081759 -0.098910 0
-0.125856 -0.145743 0
-0.039575 -0.050001 0
-0.089956 -0.086736 0
-0.135197 -0.133196 0
-0.044473 -0.042049 0
-0.336910 -0.307363 0
-0.316770 -0.300511 0
-0.347949 -0.304992 0
-0.290194 -0.343706 0
-0.286687 -0.326073 0
-0.282252 -0.351092 0
+0.000000 +0.000000 0
+0.000000 +0.000000 0
+0.000000 +0.000000 0
+0.000000 +0.000000 0
+0.000000 +0.000000 0
+0.000000 +0.000000 0
-0.217248 -0.167484 0
-0.114366 -0.086454 0
-0.298099 -0.238068 0
-0.115079 -0.097397 0
-0.122994 -0.104525 0
-0.106893 -0.090128 0
-0.114903 -0.095847 0
-0.106816 -0.089442 0
-0.122699 -0.101920 0
-0.152018 -0.126628 0
-0.141261 -0.117215 0
-0.162415 -0.135858 0
-0.152295 -0.129072 0
-0.162568 -0.137211 0
-0.141632 -0.120487 0
-0.084166 -0.071833 0
-0.099517 -0.085526 0
-0.076191 -0.064517 0
-0.083888 -0.069375 0
-0.076067 -0.063419 0
-0.099040 -0.081313 0
-0.175876 -0.144106 0
-0.149057 -0.121585 0
-0.195118 -0.161685 0
-0.176796 -0.152229 0
-0.195685 -0.166689 0
-0.149974 -0.129676 0
-0.127143 -0.109180 0
-0.129026 -0.110469 0
-0.125249 -0.107894 0
-0.085709 -0.072018 0
-0.091999 -0.077303 0
-0.079350 -0.066675 0
-0.126554 -0.103990 0
-0.128511 -0.105927 0
-0.124584 -0.102029 0
-0.187423 -0.157483 0
-0.179909 -0.151169 0
-0.194995 -0.163846 0
-0.075551 -0.067682 0
-0.102859 -0.090422 0
-0.040813 -0.037207 0
-0.019140 -0.016083 0
-0.042968 -0.036104 0
-0.004863 -0.004086 0
-0.074499 -0.058398 0
-0.101858 -0.081593 0
-0.040083 -0.030766 0
-0.286602 -0.240819 0
-0.245589 -0.206357 0
-0.321779 -0.270376 0
+0.082157 -0.112419 0
+0.020597 -0.171719 0
+0.156054 -0.028256 0
+0.164386 +0.047907 0
+0.214246 +0.062437 0
+0.088889 +0.025905 0
+0.000000 +0.000000 0
+0.000000 +0.000000 0
+0.000000 +0.000000 0
+0.067542 -0.062642 0
+0.064080 -0.057373 0
+0.070498 -0.067980 0
+0.087302 -0.059247 0
+0.080030 -0.066511 0
+0.094736 -0.051603 0
+0.093331 -0.036660 0
+0.098099 -0.040092 0
+0.088013 -0.033327 0
+0.070951 -0.041684 0
+0.076525 -0.036011 0
+0.065488 -0.047077 0
+0.049973 -0.078287 0
+0.047238 -0.064379 0
+0.055066 -0.088775 0
+0.093433 -0.073476 0
+0.077228 -0.087154 0
+0.109619 -0.054024 0
+0.113831 -0.014131 0
+0.122099 -0.020941 0
+0.097773 -0.013819 0
+0.053786 -0.029253 0
+0.064210 -0.022538 0
+0.048333 -0.038364 0
+0.053119 -0.051628 0
+0.056585 -0.051985 0
+0.049631 -0.051258 0
+0.068843 -0.082800 0
+0.070974 -0.078055 0
+0.066684 -0.087585 0
+0.111269 -0.039700 0
+0.106746 -0.041759 0
+0.115809 -0.037643 0
+0.081437 -0.023306 0
+0.081924 -0.026616 0
+0.080961 -0.019955 0
+0.016016 -0.032020 0
+0.029621 -0.043276 0
+0.006290 -0.017251 0
+0.025789 -0.149779 0
+0.046777 -0.121153 0
+0.002306 -0.175929 0
+0.176616 +0.005807 0
+0.148124 -0.017278 0
+0.204618 +0.034318 0
+0.053817 +0.005179 0
+0.070104 -0.003152 0
+0.030203 +0.006133 0
-0.186991 -0.247340 0
-0.243707 -0.322359 0
-0.101112 -0.133744 0
+0.164386 +0.047907 0
+0.088889 +0.025905 0
+0.214246 +0.062437 0
-0.045349 -0.211967 0
-0.033784 -0.205918 0
-0.057313 -0.217943 0
-0.045182 -0.195297 0
-0.057700 -0.210022 0
-0.032096 -0.179689 0
+0.005762 -0.152491 0
-0.006168 -0.157903 0
+0.017226 -0.147065 0
+0.001788 -0.172360 0
+0.014772 -0.157374 0
-0.010696 -0.186518 0
-0.077351 -0.246703 0
-0.052094 -0.230519 0
-0.096503 -0.254511 0
-0.084309 -0.211917 0
-0.102042 -0.237271 0
-0.053679 -0.178474 0
+0.048962 -0.099935 0
+0.020263 -0.116344 0
+0.064076 -0.097689 0
+0.031824 -0.154968 0
+0.053052 -0.128846 0
+0.005305 -0.182289 0
-0.023182 -0.204524 0
-0.022925 -0.202259 0
-0.023439 -0.206793 0
-0.087935 -0.238205 0
-0.078813 -0.231081 0
-0.097122 -0.245372 0
-0.017470 -0.154134 0
-0.017998 -0.158786 0
-0.016940 -0.149451 0
+0.046765 -0.125022 0
+0.037508 -0.133342 0
+0.056090 -0.116635 0
-0.024519 -0.216324 0
-0.024404 -0.215307 0
-0.023864 -0.210545 0
-0.199680 -0.317328 0
-0.155208 -0.287756 0
-0.235879 -0.337577 0
-0.008801 -0.077648 0
-0.012784 -0.112791 0
-0.004509 -0.039782 0
+0.162211 -0.013247 0
+0.115786 -0.060052 0
+0.200958 +0.029477 0
-0.346602 -0.237372 0
-0.365250 -0.284166 0
-0.299047 -0.160886 0
-0.164386 -0.047907 0
-0.214246 -0.062437 0
-0.088889 -0.025905 0
-0.340086 -0.297862 0
-0.332951 -0.298272 0
-0.346457 -0.297040 0
-0.337054 -0.271108 0
-0.344971 -0.283936 0
-0.328314 -0.257359 0
-0.304742 -0.242981 0
-0.312163 -0.243059 0
-0.296565 -0.242533 0
-0.308020 -0.271895 0
-0.298233 -0.257249 0
-0.316983 -0.285585 0
-0.357361 -0.328306 0
-0.342526 -0.326209 0
-0.365507 -0.321857 0
-0.350338 -0.266341 0
-0.361814 -0.289278 0
-0.332905 -0.241325 0
-0.270436 -0.193017 0
-0.289737 -0.200800 0
-0.257339 -0.197245 0
-0.279010 -0.268658 0
-0.262096 -0.239213 0
-0.300424 -0.295085 0
-0.324315 -0.307092 0
-0.324778 -0.302763 0
-0.323836 -0.311444 0
-0.360347 -0.302783 0
-0.356356 -0.299430 0
-0.364346 -0.306143 0
-0.315649 -0.230640 0
-0.317295 -0.236742 0
-0.313980 -0.224484 0
-0.271566 -0.228185 0
-0.279763 -0.235073 0
-0.263316 -0.221253 0
-0.302858 -0.347397 0
-0.315116 -0.334358 0
-0.285470 -0.352030 0
-0.381137 -0.320252 0
-0.379347 -0.318748 0
-0.370955 -0.311697 0
-0.279577 -0.141997 0
-0.297683 -0.180549 0
-0.257367 -0.104092 0
-0.136807 -0.114953 0
-0.198724 -0.166979 0
-0.070091 -0.058894 0
+0.000000 +0.000000 0
+0.000000 +0.000000 0
+0.000000 +0.000000 0
-0.164386 -0.047907 0
-0.088889 -0.025905 0
-0.214246 -0.062437 0
-0.227195 -0.148536 0
-0.242174 -0.159102 0
-0.211558 -0.137702 0
-0.191887 -0.118282 0
-0.193795 -0.122639 0
-0.189611 -0.113571 0
-0.217173 -0.127150 0
-0.202384 -0.117957 0
-0.231290 -0.136085 0
-0.251539 -0.157995 0
-0.248350 -0.151588 0
-0.254245 -0.163928 0
-0.230037 -0.159890 0
-0.258347 -0.180112 0
-0.198785 -0.136078 0
-0.140914 -0.085994 0
-0.150048 -0.096178 0
-0.144207 -0.083277 0
-0.205568 -0.107213 0
-0.179829 -0.094720 0
-0.231714 -0.124052 0
-0.288729 -0.184849 0
-0.276339 -0.166503 0
-0.289891 -0.194143 0
-0.268323 -0.181059 0
-0.262457 -0.175226 0
-0.274223 -0.186935 0
-0.183261 -0.120516 0
-0.189379 -0.123666 0
-0.177083 -0.117329 0
-0.172659 -0.097357 0
-0.179842 -0.102902 0
-0.165416 -0.091757 0
-0.251145 -0.145318 0
-0.248057 -0.145158 0
-0.254261 -0.145492 0
-0.330829 -0.253708 0
-0.308165 -0.224594 0
-0.344785 -0.277081 0
-0.087162 -0.062089 0
-0.130287 -0.089878 0
-0.043300 -0.031703 0
-0.074189 -0.032126 0
-0.115836 -0.057340 0
-0.035379 -0.012979 0
-0.265172 -0.122943 0
-0.265345 -0.137775 0
-0.253708 -0.099251 0
+0.346602 +0.237372 0
+0.299047 +0.160886 0
+0.365250 +0.284166 0
+0.217248 +0.167484 0
+0.298099 +0.238068 0
+0.114366 +0.086454 0
+0.000000 +0.000000 0
+0.000000 +0.000000 0
+0.000000 +0.000000 0
+0.217173 +0.127150 0
+0.202384 +0.117957 0
+0.231290 +0.136085 0
+0.251539 +0.157995 0
+0.248350 +0.151588 0
+0.254245 +0.163928 0
+0.227195 +0.148536 0
+0.242174 +0.159102 0
+0.211558 +0.137702 0
+0.191887 +0.118282 0
+0.193795 +0.122639 0
+0.189611 +0.113571 0
+0.205568 +0.107213 0
+0.179829 +0.094720 0
+0.231714 +0.124052 0
+0.288729 +0.184849 0
+0.276339 +0.166503 0
+0.289891 +0.194143 0
+0.230037 +0.159890 0
+0.258347 +0.180112 0
+0.198785 +0.136078 0
+0.140914 +0.085994 0
+0.150048 +0.096178 0
+0.144207 +0.083277 0
+0.172659 +0.097357 0
+0.179842 +0.102902 0
+0.165416 +0.091757 0
+0.251145 +0.145318 0
+0.248057 +0.145158 0
+0.254261 +0.145492 0
+0.268323 +0.181059 0
+0.262457 +0.175226 0
+0.274223 +0.186935 0
+0.183261 +0.120516 0
+0.189379 +0.123666 0
+0.177083 +0.117329 0
+0.074189 +0.032126 0
+0.115836 +0.057340 0
+0.035379 +0.012979 0
+0.265172 +0.122943 0
+0.265345 +0.137775 0
+0.253708 +0.099251 0
+0.330829 +0.253708 0
+0.308165 +0.224594 0
+0.344785 +0.277081 0
+0.087162 +0.062089 0
+0.130287 +0.089878 0
+0.043300 +0.031703 0
+0.186991 +0.247340 0
+0.101112 +0.133744 0
+0.243707 +0.322359 0
+0.360097 +0.356436 0
+0.321695 +0.360696 0
+0.370947 +0.334428 0
+0.304742 +0.242981 0
+0.312163 +0.243059 0
+0.296565 +0.242533 0
+0.308020 +0.271895 0
+0.298233 +0.257249 0
+0.316983 +0.285585 0
+0.340086 +0.297862 0
+0.332951 +0.298272 0
+0.346457 +0.297040 0
+0.337054 +0.271108 0
+0.344971 +0.283936 0
+0.328314 +0.257359 0
+0.270436 +0.193017 0
+0.289737 +0.200800 0
+0.257339 +0.197245 0
+0.279010 +0.268658 0
+0.262096 +0.239213 0
+0.300424 +0.295085 0
+0.357361 +0.328306 0
+0.342526 +0.326209 0
+0.365507 +0.321857 0
+0.350338 +0.266341 0
+0.361814 +0.289278 0
+0.332905 +0.241325 0
+0.315649 +0.230640 0
+0.317295 +0.236742 0
+0.313980 +0.224484 0
+0.271566 +0.228185 0
+0.279763 +0.235073 0
+0.263316 +0.221253 0
+0.324315 +0.307092 0
+0.324778 +0.302763 0
+0.323836 +0.311444 0
+0.360347 +0.302783 0
+0.356356 +0.299430 0
+0.364346 +0.306143 0
+0.279577 +0.141997 0
+0.297683 +0.180549 0
+0.257367 +0.104092 0
+0.136807 +0.114953 0
+0.198724 +0.166979 0
+0.070091 +0.058894 0
+0.302858 +0.347397 0
+0.315116 +0.334358 0
+0.285470 +0.352030 0
+0.381137 +0.320252 0
+0.379347 +0.318748 0
+0.370955 +0.311697 0
-0.082157 +0.112419 0
-0.156054 +0.028256 0
-0.020597 +0.171719 0
+0.127620 +0.288685 0
+0.067958 +0.246128 0
+0.195987 +0.324061 0
-0.005762 +0.152491 0
+0.006168 +0.157903 0
-0.017226 +0.147065 0
-0.001788 +0.172360 0
-0.014772 +0.157374 0
+0.010696 +0.186518 0
+0.045349 +0.211967 0
+0.033784 +0.205918 0
+0.057313 +0.217943 0
+0.045182 +0.195297 0
+0.057700 +0.210022 0
+0.032096 +0.179689 0
-0.048962 +0.099935 0
-0.020263 +0.116344 0
-0.064076 +0.097689 0
-0.031824 +0.154968 0
-0.053052 +0.128846 0
-0.005305 +0.182289 0
+0.077351 +0.246703 0
+0.052094 +0.230519 0
+0.096503 +0.254511 0
+0.084309 +0.211917 0
+0.102042 +0.237271 0
+0.053679 +0.178474 0
+0.017470 +0.154134 0
+0.017998 +0.158786 0
+0.016940 +0.149451 0
-0.046765 +0.125022 0
-0.037508 +0.133342 0
-0.056090 +0.116635 0
+0.023182 +0.204524 0
+0.022925 +0.202259 0
+0.023439 +0.206793 0
+0.087935 +0.238205 0
+0.078813 +0.231081 0
+0.097122 +0.245372 0
+0.008801 +0.077648 0
+0.012784 +0.112791 0
+0.004509 +0.039782 0
-0.162211 +0.013247 0
-0.115786 +0.060052 0
-0.200958 -0.029477 0
+0.024519 +0.216324 0
+0.024404 +0.215307 0
+0.023864 +0.210545 0
+0.199680 +0.317328 0
+0.155208 +0.287756 0
+0.235879 +0.337577 0
+0.000000 +0.000000 0
+0.000000 +0.000000 0
+0.000000 +0.000000 0
-0.015229 +0.099733 0
-0.011342 +0.049819 0
-0.004891 +0.149768 0
-0.093331 +0.036660 0
-0.098099 +0.040092 0
-0.088013 +0.033327 0
-0.070951 +0.041684 0
-0.076525 +0.036011 0
-0.065488 +0.047077 0
-0.067542 +0.062642 0
-0.064080 +0.057373 0
-0.070498 +0.067980 0
-0.087302 +0.059247 0
-0.080030 +0.066511 0
-0.094736 +0.051603 0
-0.113831 +0.014131 0
-0.122099 +0.020941 0
-0.097773 +0.013819 0
-0.053786 +0.029253 0
-0.064210 +0.022538 0
-0.048333 +0.038364 0
-0.049973 +0.078287 0
-0.047238 +0.064379 0
-0.055066 +0.088775 0
-0.093433 +0.073476 0
-0.077228 +0.087154 0
-0.109619 +0.054024 0
-0.111269 +0.039700 0
-0.106746 +0.041759 0
-0.115809 +0.037643 0
-0.081437 +0.023306 0
-0.081924 +0.026616 0
-0.080961 +0.019955 0
-0.053119 +0.051628 0
-0.056585 +0.051985 0
-0.049631 +0.051258 0
-0.068843 +0.082800 0
-0.070974 +0.078055 0
-0.066684 +0.087585 0
-0.176616 -0.005807 0
-0.148124 +0.017278 0
-0.204618 -0.034318 0
-0.053817 -0.005179 0
-0.070104 +0.003152 0
-0.030203 -0.006133 0
-0.016016 +0.032020 0
-0.029621 +0.043276 0
-0.006290 +0.017251 0
-0.025789 +0.149779 0
-0.046777 +0.121153 0
-0.002306 +0.175929 0
+0.221021 +0.200774 0
+0.301208 +0.265502 0
+0.116782 +0.107769 0
+0.000000 +0.000000 0
+0.000000 +0.000000 0
+0.000000 +0.000000 0
+0.000000 +0.000000 0
+0.000000 +0.000000 0
+0.000000 +0.000000 0
+0.152018 +0.126628 0
+0.141261 +0.117215 0
+0.162415 +0.135858 0
+0.152295 +0.129072 0
+0.162568 +0.137211 0
+0.141632 +0.120487 0
+0.115079 +0.097397 0
+0.122994 +0.104525 0
+0.106893 +0.090128 0
+0.114903 +0.095847 0
+0.106816 +0.089442 0
+0.122699 +0.101920 0
+0.175876 +0.144106 0
+0.149057 +0.121585 0
+0.195118 +0.161685 0
+0.176796 +0.152229 0
+0.195685 +0.166689 0
+0.149974 +0.129676 0
+0.084166 +0.071833 0
+0.099517 +0.085526 0
+0.076191 +0.064517 0
+0.083888 +0.069375 0
+0.076067 +0.063419 0
+0.099040 +0.081313 0
+0.126554 +0.103990 0
+0.128511 +0.105927 0
+0.124584 +0.102029 0
+0.187423 +0.157483 0
+0.179909 +0.151169 0
+0.194995 +0.163846 0
+0.127143 +0.109180 0
+0.129026 +0.110469 0
+0.125249 +0.107894 0
+0.085709 +0.072018 0
+0.091999 +0.077303 0
+0.079350 +0.066675 0
+0.074499 +0.058398 0
+0.101858 +0.081593 0
+0.040083 +0.030766 0
+0.286602 +0.240819 0
+0.245589 +0.206357 0
+0.321779 +0.270376 0
+0.075551 +0.067682 0
+0.102859 +0.090422 0
+0.040813 +0.037207 0
+0.019140 +0.016083 0
+0.042968 +0.036104 0
+0.004863 +0.004086 0
+0.186991 +0.247340 0
+0.243707 +0.322359 0
+0.101112 +0.133744 0
+0.000000 +0.000000 0
+0.000000 +0.000000 0
+0.000000 +0.000000 0
+0.264909 +0.275953 0
+0.266697 +0.273796 0
+0.262654 +0.277786 0
+0.231036 +0.249460 0
+0.245887 +0.264865 0
+0.215437 +0.233120 0
+0.202648 +0.213228 0
+0.201074 +0.214704 0
+0.203867 +0.211498 0
+0.237809 +0.242186 0
+0.221596 +0.226258 0
+0.253295 +0.257219 0
+0.303200 +0.312522 0
+0.302278 +0.303430 0
+0.292798 +0.311717 0
+0.221983 +0.252039 0
+0.249415 +0.280219 0
+0.193956 +0.219355 0
+0.149035 +0.157637 0
+0.153701 +0.167042 0
+0.157540 +0.162274 0
+0.238405 +0.233721 0