# vtk DataFile Version 2.0
MyTitle
ASCII
DATASET UNSTRUCTURED_GRID
POINTS 1761 double
0.000000 0.000000 0.000000
1.000000 0.000000 0.000000
1.000000 1.000000 0.000000
0.000000 1.000000 0.000000
0.420000 0.420000 0.000000
0.580000 0.420000 0.000000
0.580000 0.580000 0.000000
0.420000 0.580000 0.000000
0.358579 0.358579 0.000000
0.641421 0.358579 0.000000
0.641421 0.641421 0.000000
0.358579 0.641421 0.000000
2.000000 0.000000 0.000000
2.000000 1.000000 0.000000
1.420000 0.420000 0.000000
1.580000 0.420000 0.000000
1.580000 0.580000 0.000000
1.420000 0.580000 0.000000
1.358579 0.358579 0.000000
1.641421 0.358579 0.000000
1.641421 0.641421 0.000000
1.358579 0.641421 0.000000
3.000000 0.000000 0.000000
3.000000 1.000000 0.000000
2.420000 0.420000 0.000000
2.580000 0.420000 0.000000
2.580000 0.580000 0.000000
2.420000 0.580000 0.000000
2.358579 0.358579 0.000000
2.641421 0.358579 0.000000
2.641421 0.641421 0.000000
2.358579 0.641421 0.000000
4.000000 0.000000 0.000000
4.000000 1.000000 0.000000
3.420000 0.420000 0.000000
3.580000 0.420000 0.000000
3.580000 0.580000 0.000000
3.420000 0.580000 0.000000
3.358579 0.358579 0.000000
3.641421 0.358579 0.000000
3.641421 0.641421 0.000000
3.358579 0.641421 0.000000
1.000000 2.000000 0.000000
0.000000 2.000000 0.000000
0.420000 1.420000 0.000000
0.580000 1.420000 0.000000
0.580000 1.580000 0.000000
0.420000 1.580000 0.000000
0.358579 1.358579 0.000000
0.641421 1.358579 0.000000
0.641421 1.641421 0.000000
0.358579 1.641421 0.000000
2.000000 2.000000 0.000000
1.420000 1.420000 0.000000
1.580000 1.420000 0.000000
1.580000 1.580000 0.000000
1.420000 1.580000 0.000000
1.358579 1.358579 0.000000
1.641421 1.358579 0.000000
1.641421 1.641421 0.000000
1.358579 1.641421 0.000000
3.000000 2.000000 0.000000
2.420000 1.420000 0.000000
2.580000 1.420000 0.000000
2.580000 1.580000 0.000000
2.420000 1.580000 0.000000
2.358579 1.358579 0.000000
2.641421 1.358579 0.000000
2.641421 1.641421 0.000000
2.358579 1.641421 0.000000
4.000000 2.000000 0.000000
3.420000 1.420000 0.000000
3.580000 1.420000 0.000000
3.580000 1.580000 0.000000
3.420000 1.580000 0.000000
3.358579 1.358579 0.000000
3.641421 1.358579 0.000000
3.641421 1.641421 0.000000
3.358579 1.641421 0.000000
1.000000 3.000000 0.000000
0.000000 3.000000 0.000000
0.420000 2.420000 0.000000
0.580000 2.420000 0.000000
0.580000 2.580000 0.000000
0.420000 2.580000 0.000000
0.358579 2.358579 0.000000
0.641421 2.358579 0.000000
0.641421 2.641421 0.000000
0.358579 2.641421 0.000000
2.000000 3.000000 0.000000
1.420000 2.420000 0.000000
1.580000 2.420000 0.000000
1.580000 2.580000 0.000000
1.420000 2.580000 0.000000
1.358579 2.358579 0.000000
1.641421 2.358579 0.000000
1.641421 2.641421 0.000000
1.358579 2.641421 0.000000
3.000000 3.000000 0.000000
2.420000 2.420000 0.000000
2.580000 2.420000 0.000000
2.580000 2.580000 0.000000
2.420000 2.580000 0.000000
2.358579 2.358579 0.000000
2.641421 2.358579 0.000000
2.641421 2.641421 0.000000
2.358579 2.641421 0.000000
4.000000 3.000000 0.000000
3.420000 2.420000 0.000000
3.580000 2.420000 0.000000
3.580000 2.580000 0.000000
3.420000 2.580000 0.000000
3.358579 2.358579 0.000000
3.641421 2.358579 0.000000
3.641421 2.641421 0.000000
3.358579 2.641421 0.000000
1.000000 4.000000 0.000000
0.000000 4.000000 0.000000
0.420000 3.420000 0.000000
0.580000 3.420000 0.000000
0.580000 3.580000 0.000000
0.420000 3.580000 0.000000
0.358579 3.358579 0.000000
0.641421 3.358579 0.000000
0.641421 3.641421 0.000000
0.358579 3.641421 0.000000
2.000000 4.000000 0.000000
1.420000 3.420000 0.000000
1.580000 3.420000 0.000000
1.580000 3.580000 0.000000
1.420000 3.580000 0.000000
1.358579 3.358579 0.000000
1.641421 3.358579 0.000000
1.641421 3.641421 0.000000
1.358579 3.641421 0.000000
3.000000 4.000000 0.000000
2.420000 3.420000 0.000000
2.580000 3.420000 0.000000
2.580000 3.580000 0.000000
2.420000 3.580000 0.000000
2.358579 3.358579 0.000000
2.641421 3.358579 0.000000
2.641421 3.641421 0.000000
2.358579 3.641421 0.000000
4.000000 4.000000 0.000000
3.420000 3.420000 0.000000
3.580000 3.420000 0.000000
3.580000 3.580000 0.000000
3.420000 3.580000 0.000000
3.358579 3.358579 0.000000
3.641421 3.358579 0.000000
3.641421 3.641421 0.000000
3.358579 3.641421 0.000000
0.500000 0.000000 0.000000
0.250000 0.000000 0.000000
0.750000 0.000000 0.000000
1.000000 0.500000 0.000000
1.000000 0.250000 0.000000
1.000000 0.750000 0.000000
0.500000 1.000000 0.000000
0.750000 1.000000 0.000000
0.250000 1.000000 0.000000
0.000000 0.500000 0.000000
0.000000 0.750000 0.000000
0.000000 0.250000 0.000000
0.500000 0.420000 0.000000
0.460000 0.420000 0.000000
0.540000 0.420000 0.000000
0.580000 0.500000 0.000000
0.580000 0.460000 0.000000
0.580000 0.540000 0.000000
0.500000 0.580000 0.000000
0.540000 0.580000 0.000000
0.460000 0.580000 0.000000
0.420000 0.500000 0.000000
0.420000 0.540000 0.000000
0.420000 0.460000 0.000000
0.500000 0.300001 0.000000
0.423464 0.315225 0.000000
0.576536 0.315225 0.000000
0.699999 0.500000 0.000000
0.684775 0.423464 0.000000
0.684775 0.576536 0.000000
0.500000 0.699999 0.000000
0.576536 0.684775 0.000000
0.423464 0.684775 0.000000
0.300001 0.500000 0.000000
0.315225 0.576536 0.000000
0.315225 0.423464 0.000000
0.389290 0.389290 0.000000
0.404645 0.404645 0.000000
0.373934 0.373934 0.000000
0.610710 0.389290 0.000000
0.595355 0.404645 0.000000
0.626066 0.373934 0.000000
0.610710 0.610710 0.000000
0.595355 0.595355 0.000000
0.626066 0.626066 0.000000
0.389290 0.610710 0.000000
0.404645 0.595355 0.000000
0.373934 0.626066 0.000000
0.179290 0.179290 0.000000
0.268934 0.268934 0.000000
0.089645 0.089645 0.000000
0.820710 0.179290 0.000000
0.731066 0.268934 0.000000
0.910355 0.089645 0.000000
0.820710 0.820710 0.000000
0.731066 0.731066 0.000000
0.910355 0.910355 0.000000
0.179290 0.820710 0.000000
0.268934 0.731066 0.000000
0.089645 0.910355 0.000000
1.500000 0.000000 0.000000
1.250000 0.000000 0.000000
1.750000 0.000000 0.000000
2.000000 0.500000 0.000000
2.000000 0.250000 0.000000
2.000000 0.750000 0.000000
1.500000 1.000000 0.000000
1.750000 1.000000 0.000000
1.250000 1.000000 0.000000
1.500000 0.420000 0.000000
1.460000 0.420000 0.000000
1.540000 0.420000 0.000000
1.580000 0.500000 0.000000
1.580000 0.460000 0.000000
1.580000 0.540000 0.000000
1.500000 0.580000 0.000000
1.540000 0.580000 0.000000
1.460000 0.580000 0.000000
1.420000 0.500000 0.000000
1.420000 0.540000 0.000000
1.420000 0.460000 0.000000
1.500000 0.300001 0.000000
1.423464 0.315225 0.000000
1.576536 0.315225 0.000000
1.699999 0.500000 0.000000
1.684775 0.423464 0.000000
1.684775 0.576536 0.000000
1.500000 0.699999 0.000000
1.576536 0.684775 0.000000
1.423464 0.684775 0.000000
1.300001 0.500000 0.000000
1.315225 0.576536 0.000000
1.315225 0.423464 0.000000
1.389290 0.389290 0.000000
1.404645 0.404645 0.000000
1.373934 0.373934 0.000000
1.610710 0.389290 0.000000
1.595355 0.404645 0.000000
1.626066 0.373934 0.000000
1.610710 0.610710 0.000000
1.595355 0.595355 0.000000
1.626066 0.626066 0.000000
1.389290 0.610710 0.000000
1.404645 0.595355 0.000000
1.373934 0.626066 0.000000
1.179290 0.179290 0.000000
1.268934 0.268934 0.000000
1.089645 0.089645 0.000000
1.820710 0.179290 0.000000
1.731066 0.268934 0.000000
1.910355 0.089645 0.000000
1.820710 0.820710 0.000000
1.731066 0.731066 0.000000
1.910355 0.910355 0.000000
1.179290 0.820710 0.000000
1.268934 0.731066 0.000000
1.089645 0.910355 0.000000
2.500000 0.000000 0.000000
2.250000 0.000000 0.000000
2.750000 0.000000 0.000000
3.000000 0.500000 0.000000
3.000000 0.250000 0.000000
3.000000 0.750000 0.000000
2.500000 1.000000 0.000000
2.750000 1.000000 0.000000
2.250000 1.000000 0.000000
2.500000 0.420000 0.000000
2.460000 0.420000 0.000000
2.540000 0.420000 0.000000
2.580000 0.500000 0.000000
2.580000 0.460000 0.000000
2.580000 0.540000 0.000000
2.500000 0.580000 0.000000
2.540000 0.580000 0.000000
2.460000 0.580000 0.000000
2.420000 0.500000 0.000000
2.420000 0.540000 0.000000
2.420000 0.460000 0.000000
2.500000 0.300001 0.000000
2.423464 0.315225 0.000000
2.576536 0.315225 0.000000
2.699999 0.500000 0.000000
2.684775 0.423464 0.000000
2.684775 0.576536 0.000000
2.500000 0.699999 0.000000
2.576536 0.684775 0.000000
2.423464 0.684775 0.000000
2.300001 0.500000 0.000000
2.315225 0.576536 0.000000
2.315225 0.423464 0.000000
2.389289 0.389289 0.000000
2.404645 0.404645 0.000000
2.373934 0.373934 0.000000
2.610711 0.389289 0.000000
2.595355 0.404645 0.000000
2.626066 0.373934 0.000000
2.610711 0.610711 0.000000
2.595355 0.595355 0.000000
2.626066 0.626066 0.000000
2.389289 0.610711 0.000000
2.404645 0.595355 0.000000
2.373934 0.626066 0.000000
2.179290 0.179290 0.000000
2.268934 0.268934 0.000000
2.089645 0.089645 0.000000
2.820710 0.179290 0.000000
2.731066 0.268934 0.000000
2.910355 0.089645 0.000000
2.820710 0.820710 0.000000
2.731066 0.731066 0.000000
2.910355 0.910355 0.000000
2.179290 0.820710 0.000000
2.268934 0.731066 0.000000
2.089645 0.910355 0.000000
3.500000 0.000000 0.000000
3.250000 0.000000 0.000000
3.750000 0.000000 0.000000
4.000000 0.500000 0.000000
4.000000 0.250000 0.000000
4.000000 0.750000 0.000000
3.500000 1.000000 0.000000
3.750000 1.000000 0.000000
3.250000 1.000000 0.000000
3.500000 0.420000 0.000000
3.460000 0.420000 0.000000
3.540000 0.420000 0.000000
3.580000 0.500000 0.000000
3.580000 0.460000 0.000000
3.580000 0.540000 0.000000
3.500000 0.580000 0.000000
3.540000 0.580000 0.000000
3.460000 0.580000 0.000000
3.420000 0.500000 0.000000
3.420000 0.540000 0.000000
3.420000 0.460000 0.000000
3.500000 0.300001 0.000000
3.423464 0.315225 0.000000
3.576536 0.315225 0.000000
3.699999 0.500000 0.000000
3.684775 0.423464 0.000000
3.684775 0.576536 0.000000
3.500000 0.699999 0.000000
3.576536 0.684775 0.000000
3.423464 0.684775 0.000000
3.300001 0.500000 0.000000
3.315225 0.576536 0.000000
3.315225 0.423464 0.000000
3.389289 0.389289 0.000000
3.404645 0.404645 0.000000
3.373934 0.373934 0.000000
3.610711 0.389289 0.000000
3.595355 0.404645 0.000000
3.626066 0.373934 0.000000
3.610711 0.610711 0.000000
[...]
POINT_DATA 1761
VECTORS sol double
+0.000000 +0.000000 0
+0.000000 +0.000000 0
+0.194322 +0.215326 0
+0.000000 +0.000000 0
+0.104569 +0.115872 0
+0.132437 +0.136239 0
+0.166411 +0.184398 0
+0.132161 +0.156960 0
+0.080110 +0.088769 0
+0.123857 +0.119689 0
+0.186645 +0.206820 0
+0.123396 +0.154290 0
+0.000000 +0.000000 0
+0.003893 -0.291693 0
+0.134532 -0.020729 0
+0.121024 -0.067423 0
+0.135494 -0.092836 0
+0.155257 -0.029490 0
+0.125462 -0.000563 0
+0.105637 -0.071263 0
+0.127135 -0.125880 0
+0.166071 -0.004296 0
+0.000000 +0.000000 0
+0.194322 +0.215326 0
+0.121024 -0.067423 0
+0.134532 -0.020729 0
+0.155257 -0.029490 0
+0.135494 -0.092836 0
+0.105637 -0.071263 0
+0.125462 -0.000563 0
+0.166071 -0.004296 0
+0.127135 -0.125880 0
+0.000000 +0.000000 0
+0.000000 +0.000000 0
+0.132437 +0.136239 0
+0.104569 +0.115872 0
+0.132161 +0.156960 0
+0.166411 +0.184398 0
+0.123857 +0.119689 0
+0.080110 +0.088769 0
+0.123396 +0.154290 0
+0.186645 +0.206820 0
-0.003893 +0.291693 0
+0.000000 +0.000000 0
+0.130066 +0.313927 0
+0.149956 +0.367693 0
+0.129103 +0.386035 0
+0.115723 +0.329760 0
+0.121791 +0.274542 0
+0.161118 +0.366852 0
+0.120118 +0.399859 0
+0.100684 +0.299885 0
-0.388644 -0.430653 0
-0.070337 -0.077939 0
-0.131475 -0.208346 0
-0.200643 -0.222331 0
-0.133123 -0.084852 0
-0.019676 -0.021802 0
-0.122185 -0.245007 0
-0.247079 -0.273786 0
-0.125068 -0.028972 0
-0.003893 +0.291693 0
-0.131475 -0.208346 0
-0.070337 -0.077939 0
-0.133123 -0.084852 0
-0.200643 -0.222331 0
-0.122185 -0.245007 0
-0.019676 -0.021802 0
-0.125068 -0.028972 0
-0.247079 -0.273786 0
+0.000000 +0.000000 0
+0.149956 +0.367693 0
+0.130066 +0.313927 0
+0.115723 +0.329760 0
+0.129103 +0.386035 0
+0.161118 +0.366852 0
+0.121791 +0.274542 0
+0.100684 +0.299885 0
+0.120118 +0.399859 0
+0.194322 +0.215326 0
+0.000000 +0.000000 0
+0.115723 +0.329760 0
+0.129103 +0.386035 0
+0.149956 +0.367693 0
+0.130066 +0.313927 0
+0.100684 +0.299885 0
+0.120118 +0.399859 0
+0.161118 +0.366852 0
+0.121791 +0.274542 0
+0.003893 -0.291693 0
-0.133123 -0.084852 0
-0.200643 -0.222331 0
-0.131475 -0.208346 0
-0.070337 -0.077939 0
-0.125068 -0.028972 0
-0.247079 -0.273786 0
-0.122185 -0.245007 0
-0.019676 -0.021802 0
+0.194322 +0.215326 0
-0.200643 -0.222331 0
-0.133123 -0.084852 0
-0.070337 -0.077939 0
-0.131475 -0.208346 0
-0.247079 -0.273786 0
-0.125068 -0.028972 0
-0.019676 -0.021802 0
-0.122185 -0.245007 0
+0.000000 +0.000000 0
+0.129103 +0.386035 0
+0.115723 +0.329760 0
+0.130066 +0.313927 0
+0.149956 +0.367693 0
+0.120118 +0.399859 0
+0.100684 +0.299885 0
+0.121791 +0.274542 0
+0.161118 +0.366852 0
+0.000000 +0.000000 0
+0.000000 +0.000000 0
+0.132161 +0.156960 0
+0.166411 +0.184398 0
+0.132437 +0.136239 0
+0.104569 +0.115872 0
+0.123396 +0.154290 0
+0.186645 +0.206820 0
+0.123857 +0.119689 0
+0.080110 +0.088769 0
+0.000000 +0.000000 0
+0.155257 -0.029490 0
+0.135494 -0.092836 0
+0.121024 -0.067423 0
+0.134532 -0.020729 0
+0.166071 -0.004296 0
+0.127135 -0.125880 0
+0.105637 -0.071263 0
+0.125462 -0.000563 0
+0.000000 +0.000000 0
+0.135494 -0.092836 0
+0.155257 -0.029490 0
+0.134532 -0.020729 0
+0.121024 -0.067423 0
+0.127135 -0.125880 0
+0.166071 -0.004296 0
+0.125462 -0.000563 0
+0.105637 -0.071263 0
+0.000000 +0.000000 0
+0.166411 +0.184398 0
+0.132161 +0.156960 0
+0.104569 +0.115872 0
+0.132437 +0.136239 0
+0.186645 +0.206820 0
+0.123396 +0.154290 0
+0.080110 +0.088769 0
+0.123857 +0.119689 0
+0.000000 +0.000000 0
+0.000000 +0.000000 0
+0.000000 +0.000000 0
+0.180067 +0.119163 0
+0.103298 +0.061330 0
+0.210404 +0.170649 0
+0.177953 +0.277555 0
+0.208760 +0.293822 0
+0.101901 +0.166049 0
+0.000000 +0.000000 0
+0.000000 +0.000000 0
+0.000000 +0.000000 0
+0.119631 +0.128280 0
+0.112364 +0.122603 0
+0.126330 +0.132837 0
+0.150933 +0.160673 0
+0.142038 +0.148534 0
+0.159060 +0.172636 0
+0.150760 +0.173630 0
+0.158965 +0.179764 0
+0.141805 +0.165991 0
+0.119518 +0.136718 0
+0.126142 +0.146925 0
+0.112314 +0.126360 0
+0.089718 +0.092525 0
+0.082583 +0.088408 0
+0.103498 +0.103035 0
+0.167375 +0.164217 0
+0.146193 +0.140476 0
+0.181069 +0.187623 0
+0.166816 +0.206097 0
+0.180727 +0.213281 0
+0.145627 +0.182888 0
+0.089537 +0.106106 0
+0.103191 +0.125995 0
+0.082501 +0.094521 0
+0.092304 +0.102281 0
+0.098404 +0.109040 0
+0.086083 +0.095387 0
+0.128561 +0.128339 0
+0.130651 +0.132412 0
+0.126428 +0.124145 0
+0.176666 +0.195762 0
+0.171625 +0.190176 0
+0.181805 +0.201457 0
+0.128189 +0.156163 0
+0.130326 +0.156775 0
+0.126008 +0.155577 0
+0.021938 +0.024309 0
+0.048244 +0.053459 0
+0.005717 +0.006335 0
+0.073502 +0.056892 0
+0.102195 +0.089565 0
+0.038784 +0.026269 0
+0.217779 +0.241319 0
+0.206932 +0.229300 0
+0.213015 +0.236040 0
+0.072856 +0.105286 0
+0.101572 +0.136226 0
+0.038345 +0.059197 0
+0.000000 +0.000000 0
+0.000000 +0.000000 0
+0.000000 +0.000000 0
+0.109105 -0.151784 0
+0.071818 -0.076707 0
+0.086255 -0.223674 0
+0.076020 -0.108078 0
+0.024043 -0.239476 0
+0.141053 +0.062509 0
+0.127647 -0.044982 0
+0.131083 -0.033019 0
+0.124278 -0.056488 0
+0.131171 -0.080151 0
+0.126786 -0.073790 0
+0.134076 -0.086503 0
+0.145151 -0.062368 0
+0.140242 -0.077961 0
+0.150178 -0.046159 0
+0.147707 -0.025046 0
+0.152203 -0.027255 0
+0.141786 -0.022869 0
+0.100562 -0.031988 0
+0.109223 -0.016355 0
+0.099949 -0.049772 0
+0.120785 -0.113802 0
+0.113678 -0.093195 0
+0.123908 -0.126608 0
+0.142263 -0.075643 0
+0.132158 -0.107596 0
+0.155396 -0.037051 0
+0.160123 +0.019652 0
+0.167844 +0.015546 0
+0.143775 +0.012061 0
+0.130410 -0.010217 0
+0.132622 -0.015300 0
+0.128152 -0.005072 0
+0.113412 -0.069881 0
+0.117248 -0.068850 0
+0.109551 -0.070873 0
+0.131729 -0.109027 0
+0.133764 -0.100849 0
+0.129650 -0.117328 0
+0.160702 -0.017479 0
+0.158009 -0.023682 0
+0.163394 -0.011210 0
+0.073942 +0.023961 0
+0.103161 +0.017146 0
+0.038899 +0.017687 0
+0.055644 -0.049815 0
+0.081370 -0.065031 0
+0.028426 -0.027246 0
+0.077219 -0.221617 0
+0.105717 -0.174396 0
+0.042612 -0.260556 0
+0.187005 +0.095746 0
+0.177888 +0.041920 0
+0.191851 +0.153844 0
+0.000000 +0.000000 0
+0.000000 +0.000000 0
+0.000000 +0.000000 0
+0.180067 +0.119163 0
+0.103298 +0.061330 0
+0.210404 +0.170649 0
+0.076020 -0.108078 0
+0.141053 +0.062509 0
+0.024043 -0.239476 0
+0.127647 -0.044982 0
+0.124278 -0.056488 0
+0.131083 -0.033019 0
+0.147707 -0.025046 0
+0.141786 -0.022869 0
+0.152203 -0.027255 0
+0.145151 -0.062368 0
+0.150178 -0.046159 0
+0.140242 -0.077961 0
+0.131171 -0.080151 0
+0.134076 -0.086503 0
+0.126786 -0.073790 0
+0.100562 -0.031988 0
+0.099949 -0.049772 0
+0.109223 -0.016355 0
+0.160123 +0.019652 0
+0.143775 +0.012061 0
+0.167844 +0.015546 0
+0.142263 -0.075643 0
+0.155396 -0.037051 0
+0.132158 -0.107596 0
+0.120785 -0.113802 0
+0.123908 -0.126608 0
+0.113678 -0.093195 0
+0.113412 -0.069881 0
+0.117248 -0.068850 0
+0.109551 -0.070873 0
+0.130410 -0.010217 0
+0.132622 -0.015300 0
+0.128152 -0.005072 0
+0.160702 -0.017479 0
+0.158009 -0.023682 0
+0.163394 -0.011210 0
+0.131729 -0.109027 0
+0.133764 -0.100849 0
+0.129650 -0.117328 0
+0.055644 -0.049815 0
+0.081370 -0.065031 0
+0.028426 -0.027246 0
+0.073942 +0.023961 0
+0.103161 +0.017146 0
+0.038899 +0.017687 0
+0.187005 +0.095746 0
+0.177888 +0.041920 0
+0.191851 +0.153844 0
+0.077219 -0.221617 0
+0.105717 -0.174396 0
+0.042612 -0.260556 0
+0.000000 +0.000000 0
+0.000000 +0.000000 0
+0.000000 +0.000000 0
+0.000000 +0.000000 0
+0.000000 +0.000000 0
+0.000000 +0.000000 0
+0.177953 +0.277555 0
+0.101901 +0.166049 0
+0.208760 +0.293822 0
+0.119631 +0.128280 0
+0.126330 +0.132837 0
+0.112364 +0.122603 0
+0.119518 +0.136718 0
+0.112314 +0.126360 0
+0.126142 +0.146925 0
+0.150760 +0.173630 0
+0.141805 +0.165991 0
+0.158965 +0.179764 0
+0.150933 +0.160673 0
+0.159060 +0.172636 0
+0.142038 +0.148534 0
+0.089718 +0.092525 0
+0.103498 +0.103035 0
+0.082583 +0.088408 0
+0.089537 +0.106106 0
+0.082501 +0.094521 0
+0.103191 +0.125995 0
+0.166816 +0.206097 0
+0.145627 +0.182888 0
+0.180727 +0.213281 0
+0.167375 +0.164217 0
+0.181069 +0.187623 0
+0.146193 +0.140476 0
+0.128561 +0.128339 0
+0.130651 +0.132412 0
+0.126428 +0.124145 0
+0.092304 +0.102281 0
+0.098404 +0.109040 0
+0.086083 +0.095387 0
+0.128189 +0.156163 0
+0.130326 +0.156775 0
+0.126008 +0.155577 0
+0.176666 +0.195762 0
+0.171625 +0.190176 0
+0.181805 +0.201457 0
+0.073502 +0.056892 0
+0.102195 +0.089565 0
+0.038784 +0.026269 0
+0.021938 +0.024309 0
+0.048244 +0.053459 0
+0.005717 +0.006335 0
+0.072856 +0.105286 0
+0.101572 +0.136226 0
+0.038345 +0.059197 0
+0.217779 +0.241319 0
+0.206932 +0.229300 0
+0.213015 +0.236040 0
+0.070961 +0.270946 0
+0.138586 +0.247356 0
+0.017043 +0.285004 0
+0.101933 +0.385633 0
+0.077858 +0.405525 0
+0.067707 +0.231313 0
+0.000000 +0.000000 0
+0.000000 +0.000000 0
+0.000000 +0.000000 0
+0.142744 +0.346892 0
+0.137052 +0.331847 0
+0.147050 +0.358855 0
+0.139280 +0.377542 0
+0.144587 +0.372786 0
+0.134104 +0.381962 0
+0.125240 +0.364278 0
+0.127893 +0.376789 0
+0.121150 +0.348526 0
+0.122744 +0.322438 0
+0.119170 +0.326251 0
+0.126394 +0.318328 0
+0.155973 +0.330611 0
+0.139902 +0.302278 0
+0.163361 +0.351461 0
+0.136127 +0.384125 0
+0.149892 +0.375338 0
+0.125476 +0.393079 0
+0.114271 +0.374266 0
+0.116967 +0.393519 0
+0.107914 +0.338739 0
+0.096789 +0.250671 0
+0.095726 +0.266598 0
+0.105610 +0.254410 0
+0.126340 +0.294720 0
+0.128355 +0.304487 0
+0.124284 +0.284794 0
+0.155558 +0.367924 0
+0.152781 +0.368066 0
+0.158337 +0.367717 0
+0.125022 +0.393530 0
+0.127213 +0.390036 0
+0.122786 +0.397050 0
+0.108269 +0.315523 0
+0.112020 +0.322899 0
+0.104494 +0.308054 0
+0.072417 +0.138217 0
+0.100605 +0.208645 0
+0.038230 +0.067779 0
+0.184073 +0.315443 0
+0.173806 +0.347790 0
+0.190306 +0.269621 0
+0.069140 +0.383796 0
+0.098049 +0.400188 0
+0.034517 +0.346022 0
+0.052712 +0.169882 0
+0.077288 +0.240839 0
+0.026881 +0.088531 0
-0.251028 -0.390109 0
-0.120342 -0.346334 0
-0.348990 -0.418005 0
-0.253973 -0.169478 0
-0.349813 -0.356331 0
-0.125944 +0.073427 0
-0.102127 -0.145666 0
-0.086463 -0.112274 0
-0.117171 -0.177779 0
-0.167469 -0.215778 0
-0.149748 -0.212168 0
-0.184477 -0.219171 0
-0.168263 -0.156244 0
-0.184865 -0.190093 0
-0.150964 -0.121049 0
-0.102982 -0.081614 0
-0.118432 -0.083291 0
-0.086897 -0.079824 0
-0.048017 -0.136180 0
-0.027135 -0.075687 0
-0.080563 -0.194276 0
-0.206713 -0.297670 0
-0.166060 -0.279145 0
-0.235235 -0.296363 0
-0.208517 -0.162442 0
-0.236175 -0.226002 0
-0.168562 -0.091647 0
-0.050199 +0.027347 0
-0.083325 +0.012674 0
-0.028335 +0.014220 0
-0.045014 -0.049880 0
-0.057642 -0.063873 0
-0.032239 -0.035724 0
-0.127242 -0.227150 0
-0.129509 -0.217961 0
-0.124930 -0.236401 0
-0.223956 -0.248164 0
-0.212387 -0.235344 0
-0.235649 -0.261120 0
-0.129508 -0.057353 0
-0.131468 -0.071226 0
-0.127506 -0.043321 0
+0.109423 +0.121251 0
+0.048274 +0.053492 0
+0.157708 +0.174755 0
-0.070225 -0.302471 0
-0.099638 -0.281108 0
-0.035071 -0.304512 0
-0.349140 -0.386879 0
-0.303450 -0.336251 0
-0.376440 -0.417130 0
-0.076134 +0.140292 0
-0.104128 +0.055316 0
-0.042058 +0.219046 0
+0.070961 +0.270946 0
+0.138586 +0.247356 0
+0.017043 +0.285004 0
-0.253973 -0.169478 0
-0.125944 +0.073427 0
-0.349813 -0.356331 0
-0.102127 -0.145666 0
-0.117171 -0.177779 0
-0.086463 -0.112274 0
-0.102982 -0.081614 0
-0.086897 -0.079824 0
-0.118432 -0.083291 0
-0.168263 -0.156244 0
-0.150964 -0.121049 0
-0.184865 -0.190093 0
-0.167469 -0.215778 0
-0.184477 -0.219171 0
-0.149748 -0.212168 0
-0.048017 -0.136180 0
-0.080563 -0.194276 0
-0.027135 -0.075687 0
-0.050199 +0.027347 0
-0.028335 +0.014220 0
-0.083325 +0.012674 0
-0.208517 -0.162442 0
-0.168562 -0.091647 0
-0.236175 -0.226002 0
-0.206713 -0.297670 0
-0.235235 -0.296363 0
-0.166060 -0.279145 0
-0.127242 -0.227150 0
-0.129509 -0.217961 0
-0.124930 -0.236401 0
-0.045014 -0.049880 0
-0.057642 -0.063873 0
-0.032239 -0.035724 0
-0.129508 -0.057353 0
-0.131468 -0.071226 0
-0.127506 -0.043321 0
-0.223956 -0.248164 0
-0.212387 -0.235344 0
-0.235649 -0.261120 0
-0.070225 -0.302471 0
-0.099638 -0.281108 0
-0.035071 -0.304512 0
+0.109423 +0.121251 0
+0.048274 +0.053492 0
+0.157708 +0.174755 0
-0.076134 +0.140292 0
-0.104128 +0.055316 0
-0.042058 +0.219046 0
-0.349140 -0.386879 0
-0.303450 -0.336251 0
-0.376440 -0.417130 0
+0.000000 +0.000000 0
+0.000000 +0.000000 0
+0.000000 +0.000000 0
+0.101933 +0.385633 0
+0.067707 +0.231313 0
+0.077858 +0.405525 0
+0.142744 +0.346892 0
+0.147050 +0.358855 0
+0.137052 +0.331847 0
+0.122744 +0.322438 0
+0.126394 +0.318328 0
+0.119170 +0.326251 0
+0.125240 +0.364278 0
+0.121150 +0.348526 0
+0.127893 +0.376789 0
+0.139280 +0.377542 0
+0.134104 +0.381962 0
+0.144587 +0.372786 0
+0.155973 +0.330611 0
+0.163361 +0.351461 0
+0.139902 +0.302278 0
+0.096789 +0.250671 0
+0.105610 +0.254410 0
+0.095726 +0.266598 0
+0.114271 +0.374266 0
+0.107914 +0.338739 0
+0.116967 +0.393519 0
+0.136127 +0.384125 0
+0.125476 +0.393079 0
+0.149892 +0.375338 0
+0.155558 +0.367924 0
+0.152781 +0.368066 0
+0.158337 +0.367717 0
+0.126340 +0.294720 0
+0.128355 +0.304487 0
+0.124284 +0.284794 0
+0.108269 +0.315523 0
+0.112020 +0.322899 0
+0.104494 +0.308054 0
+0.125022 +0.393530 0
+0.127213 +0.390036 0
+0.122786 +0.397050 0
+0.184073 +0.315443 0
+0.173806 +0.347790 0
+0.190306 +0.269621 0
+0.072417 +0.138217 0
+0.100605 +0.208645 0
+0.038230 +0.067779 0
+0.052712 +0.169882 0
+0.077288 +0.240839 0
+0.026881 +0.088531 0
+0.069140 +0.383796 0
+0.098049 +0.400188 0
+0.034517 +0.346022 0
+0.070961 +0.270946 0
+0.017043 +0.285004 0
+0.138586 +0.247356 0
+0.177953 +0.277555 0
+0.208760 +0.293822 0
+0.101901 +0.166049 0
+0.000000 +0.000000 0
+0.000000 +0.000000 0
+0.000000 +0.000000 0
+0.125240 +0.364278 0
+0.121150 +0.348526 0
+0.127893 +0.376789 0
+0.139280 +0.377542 0
+0.134104 +0.381962 0
+0.144587 +0.372786 0
+0.142744 +0.346892 0
+0.147050 +0.358855 0
+0.137052 +0.331847 0
+0.122744 +0.322438 0
+0.126394 +0.318328 0
+0.119170 +0.326251 0
+0.114271 +0.374266 0
+0.107914 +0.338739 0
+0.116967 +0.393519 0
+0.136127 +0.384125 0
+0.125476 +0.393079 0
+0.149892 +0.375338 0
+0.155973 +0.330611 0
+0.163361 +0.351461 0
+0.139902 +0.302278 0
+0.096789 +0.250671 0
+0.105610 +0.254410 0
+0.095726 +0.266598 0
+0.108269 +0.315523 0
+0.112020 +0.322899 0
+0.104494 +0.308054 0
+0.125022 +0.393530 0
+0.127213 +0.390036 0
+0.122786 +0.397050 0
+0.155558 +0.367924 0
+0.152781 +0.368066 0
+0.158337 +0.367717 0
+0.126340 +0.294720 0
+0.128355 +0.304487 0
+0.124284 +0.284794 0
+0.052712 +0.169882 0
+0.077288 +0.240839 0
+0.026881 +0.088531 0
+0.069140 +0.383796 0
+0.098049 +0.400188 0
+0.034517 +0.346022 0
+0.184073 +0.315443 0
+0.173806 +0.347790 0
+0.190306 +0.269621 0
+0.072417 +0.138217 0
+0.100605 +0.208645 0
+0.038230 +0.067779 0
-0.251028 -0.390109 0
-0.348990 -0.418005 0
-0.120342 -0.346334 0
+0.076020 -0.108078 0
+0.024043 -0.239476 0
+0.141053 +0.062509 0
-0.168263 -0.156244 0
-0.150964 -0.121049 0
-0.184865 -0.190093 0
-0.167469 -0.215778 0
-0.184477 -0.219171 0
-0.149748 -0.212168 0
-0.102127 -0.145666 0
-0.117171 -0.177779 0
-0.086463 -0.112274 0
-0.102982 -0.081614 0
-0.086897 -0.079824 0
-0.118432 -0.083291 0
-0.208517 -0.162442 0
-0.168562 -0.091647 0
-0.236175 -0.226002 0
-0.206713 -0.297670 0
-0.235235 -0.296363 0
-0.166060 -0.279145 0
-0.048017 -0.136180 0
-0.080563 -0.194276 0
-0.027135 -0.075687 0
-0.050199 +0.027347 0
-0.028335 +0.014220 0
-0.083325 +0.012674 0
-0.129508 -0.057353 0
-0.131468 -0.071226 0
-0.127506 -0.043321 0
-0.223956 -0.248164 0
-0.212387 -0.235344 0
-0.235649 -0.261120 0
-0.127242 -0.227150 0
-0.129509 -0.217961 0
-0.124930 -0.236401 0
-0.045014 -0.049880 0
-0.057642 -0.063873 0
-0.032239 -0.035724 0
-0.076134 +0.140292 0
-0.104128 +0.055316 0
-0.042058 +0.219046 0
-0.349140 -0.386879 0
-0.303450 -0.336251 0
-0.376440 -0.417130 0
-0.070225 -0.302471 0
-0.099638 -0.281108 0
-0.035071 -0.304512 0
+0.109423 +0.121251 0
+0.048274 +0.053492 0
+0.157708 +0.174755 0
+0.070961 +0.270946 0
+0.017043 +0.285004 0
+0.138586 +0.247356 0
+0.076020 -0.108078 0
+0.141053 +0.062509 0
+0.024043 -0.239476 0
-0.168263 -0.156244 0
-0.184865 -0.190093 0
-0.150964 -0.121049 0
-0.102982 -0.081614 0
-0.118432 -0.083291 0
-0.086897 -0.079824 0
-0.102127 -0.145666 0
-0.086463 -0.112274 0
-0.117171 -0.177779 0
-0.167469 -0.215778 0
-0.149748 -0.212168 0
-0.184477 -0.219171 0
-0.208517 -0.162442 0
-0.236175 -0.226002 0
-0.168562 -0.091647 0
-0.050199 +0.027347 0
-0.083325 +0.012674 0
-0.028335 +0.014220 0
-0.048017 -0.136180 0
-0.027135 -0.075687 0
-0.080563 -0.194276 0
-0.206713 -0.297670 0
-0.166060 -0.279145 0
-0.235235 -0.296363 0
-0.223956 -0.248164 0
-0.212387 -0.235344 0
-0.235649 -0.261120 0
-0.129508 -0.057353 0
-0.131468 -0.071226 0
-0.127506 -0.043321 0
-0.045014 -0.049880 0
-0.057642 -0.063873 0
-0.032239 -0.035724 0
-0.127242 -0.227150 0
-0.129509 -0.217961 0
-0.124930 -0.236401 0
-0.349140 -0.386879 0
-0.303450 -0.336251 0
-0.376440 -0.417130 0
-0.076134 +0.140292 0
-0.104128 +0.055316 0
-0.042058 +0.219046 0
+0.109423 +0.121251 0
+0.048274 +0.053492 0
+0.157708 +0.174755 0
-0.070225 -0.302471 0
-0.099638 -0.281108 0
-0.035071 -0.304512 0
+0.000000 +0.000000 0
+0.000000 +0.000000 0
+0.000000 +0.000000 0
+0.177953 +0.277555 0
+0.101901 +0.166049 0
+0.208760 +0.293822 0
+0.125240 +0.364278 0
+0.127893 +0.376789 0
+0.121150 +0.348526 0
+0.122744 +0.322438 0
+0.119170 +0.326251 0
+0.126394 +0.318328 0
+0.142744 +0.346892 0
+0.137052 +0.331847 0
+0.147050 +0.358855 0
+0.139280 +0.377542 0
+0.144587 +0.372786 0
+0.134104 +0.381962 0
+0.114271 +0.374266 0
+0.116967 +0.393519 0
+0.107914 +0.338739 0
+0.096789 +0.250671 0
+0.095726 +0.266598 0
+0.105610 +0.254410 0
+0.155973 +0.330611 0
+0.139902 +0.302278 0
+0.163361 +0.351461 0
+0.136127 +0.384125 0
+0.149892 +0.375338 0
+0.125476 +0.393079 0
+0.125022 +0.393530 0
+0.127213 +0.390036 0
+0.122786 +0.397050 0
+0.108269 +0.315523 0
+0.112020 +0.322899 0
+0.104494 +0.308054 0
+0.126340 +0.294720 0
+0.128355 +0.304487 0
+0.124284 +0.284794 0
+0.155558 +0.367924 0
+0.152781 +0.368066 0
+0.158337 +0.367717 0
+0.069140 +0.383796 0
+0.098049 +0.400188 0
+0.034517 +0.346022 0
+0.052712 +0.169882 0
+0.077288 +0.240839 0
+0.026881 +0.088531 0
+0.072417 +0.138217 0
+0.100605 +0.208645 0
+0.038230 +0.067779 0
+0.184073 +0.315443 0
+0.173806 +0.347790 0
+0.190306 +0.269621 0
+0.180067 +0.119163 0
+0.210404 +0.170649 0
+0.103298 +0.061330 0
+0.000000 +0.000000 0
+0.000000 +0.000000 0
+0.000000 +0.000000 0
+0.000000 +0.000000 0
+0.000000 +0.000000 0
+0.000000 +0.000000 0
+0.150760 +0.173630 0
+0.141805 +0.165991 0
+0.158965 +0.179764 0
+0.150933 +0.160673 0
+0.159060 +0.172636 0
+0.142038 +0.148534 0
+0.119631 +0.128280 0
+0.126330 +0.132837 0
+0.112364 +0.122603 0
+0.119518 +0.136718 0
+0.112314 +0.126360 0
+0.126142 +0.146925 0
+0.166816 +0.206097 0
+0.145627 +0.182888 0
+0.180727 +0.213281 0
+0.167375 +0.164217 0
+0.181069 +0.187623 0
+0.146193 +0.140476 0
+0.089718 +0.092525 0
+0.103498 +0.103035 0
+0.082583 +0.088408 0
+0.089537 +0.106106 0
+0.082501 +0.094521 0
+0.103191 +0.125995 0
+0.128189 +0.156163 0
+0.130326 +0.156775 0
+0.126008 +0.155577 0
+0.176666 +0.195762 0
+0.171625 +0.190176 0
+0.181805 +0.201457 0
+0.128561 +0.128339 0
+0.130651 +0.132412 0
+0.126428 +0.124145 0
+0.092304 +0.102281 0
+0.098404 +0.109040 0
+0.086083 +0.095387 0
+0.072856 +0.105286 0
+0.101572 +0.136226 0
+0.038345 +0.059197 0
+0.217779 +0.241319 0
+0.206932 +0.229300 0
+0.213015 +0.236040 0
+0.073502 +0.056892 0
+0.102195 +0.089565 0
+0.038784 +0.026269 0
+0.021938 +0.024309 0
+0.048244 +0.053459 0
+0.005717 +0.006335 0
+0.109105 -0.151784 0
+0.086255 -0.223674 0
+0.071818 -0.076707 0
+0.000000 +0.000000 0
+0.000000 +0.000000 0
+0.000000 +0.000000 0
+0.145151 -0.062368 0
+0.150178 -0.046159 0
+0.140242 -0.077961 0
+0.131171 -0.080151 0
+0.134076 -0.086503 0
+0.126786 -0.073790 0
+0.127647 -0.044982 0
+0.124278 -0.056488 0
+0.131083 -0.033019 0
+0.147707 -0.025046 0
+0.141786 -0.022869 0
+0.152203 -0.027255 0
+0.142263 -0.075643 0
+0.155396 -0.037051 0
+0.132158 -0.107596 0
+0.120785 -0.113802 0
+0.123908 -0.126608 0
+0.113678 -0.093195 0
+0.100562 -0.031988 0
+0.099949 -0.049772 0
+0.109223 -0.016355 0
+0.160123 +0.019652 0