# vtk DataFile Version 2.0
MyTitle
ASCII
DATASET UNSTRUCTURED_GRID
POINTS 1761 double
0.000000 0.000000 0.000000
1.000000 0.000000 0.000000
1.000000 1.000000 0.000000
0.000000 1.000000 0.000000
0.420000 0.420000 0.000000
0.580000 0.420000 0.000000
0.580000 0.580000 0.000000
0.420000 0.580000 0.000000
0.358579 0.358579 0.000000
0.641421 0.358579 0.000000
0.641421 0.641421 0.000000
0.358579 0.641421 0.000000
2.000000 0.000000 0.000000
2.000000 1.000000 0.000000
1.420000 0.420000 0.000000
1.580000 0.420000 0.000000
1.580000 0.580000 0.000000
1.420000 0.580000 0.000000
1.358579 0.358579 0.000000
1.641421 0.358579 0.000000
1.641421 0.641421 0.000000
1.358579 0.641421 0.000000
3.000000 0.000000 0.000000
3.000000 1.000000 0.000000
2.420000 0.420000 0.000000
2.580000 0.420000 0.000000
2.580000 0.580000 0.000000
2.420000 0.580000 0.000000
2.358579 0.358579 0.000000
2.641421 0.358579 0.000000
2.641421 0.641421 0.000000
2.358579 0.641421 0.000000
4.000000 0.000000 0.000000
4.000000 1.000000 0.000000
3.420000 0.420000 0.000000
3.580000 0.420000 0.000000
3.580000 0.580000 0.000000
3.420000 0.580000 0.000000
3.358579 0.358579 0.000000
3.641421 0.358579 0.000000
3.641421 0.641421 0.000000
3.358579 0.641421 0.000000
1.000000 2.000000 0.000000
0.000000 2.000000 0.000000
0.420000 1.420000 0.000000
0.580000 1.420000 0.000000
0.580000 1.580000 0.000000
0.420000 1.580000 0.000000
0.358579 1.358579 0.000000
0.641421 1.358579 0.000000
0.641421 1.641421 0.000000
0.358579 1.641421 0.000000
2.000000 2.000000 0.000000
1.420000 1.420000 0.000000
1.580000 1.420000 0.000000
1.580000 1.580000 0.000000
1.420000 1.580000 0.000000
1.358579 1.358579 0.000000
1.641421 1.358579 0.000000
1.641421 1.641421 0.000000
1.358579 1.641421 0.000000
3.000000 2.000000 0.000000
2.420000 1.420000 0.000000
2.580000 1.420000 0.000000
2.580000 1.580000 0.000000
2.420000 1.580000 0.000000
2.358579 1.358579 0.000000
2.641421 1.358579 0.000000
2.641421 1.641421 0.000000
2.358579 1.641421 0.000000
4.000000 2.000000 0.000000
3.420000 1.420000 0.000000
3.580000 1.420000 0.000000
3.580000 1.580000 0.000000
3.420000 1.580000 0.000000
3.358579 1.358579 0.000000
3.641421 1.358579 0.000000
3.641421 1.641421 0.000000
3.358579 1.641421 0.000000
1.000000 3.000000 0.000000
0.000000 3.000000 0.000000
0.420000 2.420000 0.000000
0.580000 2.420000 0.000000
0.580000 2.580000 0.000000
0.420000 2.580000 0.000000
0.358579 2.358579 0.000000
0.641421 2.358579 0.000000
0.641421 2.641421 0.000000
0.358579 2.641421 0.000000
2.000000 3.000000 0.000000
1.420000 2.420000 0.000000
1.580000 2.420000 0.000000
1.580000 2.580000 0.000000
1.420000 2.580000 0.000000
1.358579 2.358579 0.000000
1.641421 2.358579 0.000000
1.641421 2.641421 0.000000
1.358579 2.641421 0.000000
3.000000 3.000000 0.000000
2.420000 2.420000 0.000000
2.580000 2.420000 0.000000
2.580000 2.580000 0.000000
2.420000 2.580000 0.000000
2.358579 2.358579 0.000000
2.641421 2.358579 0.000000
2.641421 2.641421 0.000000
2.358579 2.641421 0.000000
4.000000 3.000000 0.000000
3.420000 2.420000 0.000000
3.580000 2.420000 0.000000
3.580000 2.580000 0.000000
3.420000 2.580000 0.000000
3.358579 2.358579 0.000000
3.641421 2.358579 0.000000
3.641421 2.641421 0.000000
3.358579 2.641421 0.000000
1.000000 4.000000 0.000000
0.000000 4.000000 0.000000
0.420000 3.420000 0.000000
0.580000 3.420000 0.000000
0.580000 3.580000 0.000000
0.420000 3.580000 0.000000
0.358579 3.358579 0.000000
0.641421 3.358579 0.000000
0.641421 3.641421 0.000000
0.358579 3.641421 0.000000
2.000000 4.000000 0.000000
1.420000 3.420000 0.000000
1.580000 3.420000 0.000000
1.580000 3.580000 0.000000
1.420000 3.580000 0.000000
1.358579 3.358579 0.000000
1.641421 3.358579 0.000000
1.641421 3.641421 0.000000
1.358579 3.641421 0.000000
3.000000 4.000000 0.000000
2.420000 3.420000 0.000000
2.580000 3.420000 0.000000
2.580000 3.580000 0.000000
2.420000 3.580000 0.000000
2.358579 3.358579 0.000000
2.641421 3.358579 0.000000
2.641421 3.641421 0.000000
2.358579 3.641421 0.000000
4.000000 4.000000 0.000000
3.420000 3.420000 0.000000
3.580000 3.420000 0.000000
3.580000 3.580000 0.000000
3.420000 3.580000 0.000000
3.358579 3.358579 0.000000
3.641421 3.358579 0.000000
3.641421 3.641421 0.000000
3.358579 3.641421 0.000000
0.500000 0.000000 0.000000
0.250000 0.000000 0.000000
0.750000 0.000000 0.000000
1.000000 0.500000 0.000000
1.000000 0.250000 0.000000
1.000000 0.750000 0.000000
0.500000 1.000000 0.000000
0.750000 1.000000 0.000000
0.250000 1.000000 0.000000
0.000000 0.500000 0.000000
0.000000 0.750000 0.000000
0.000000 0.250000 0.000000
0.500000 0.420000 0.000000
0.460000 0.420000 0.000000
0.540000 0.420000 0.000000
0.580000 0.500000 0.000000
0.580000 0.460000 0.000000
0.580000 0.540000 0.000000
0.500000 0.580000 0.000000
0.540000 0.580000 0.000000
0.460000 0.580000 0.000000
0.420000 0.500000 0.000000
0.420000 0.540000 0.000000
0.420000 0.460000 0.000000
0.500000 0.300001 0.000000
0.423464 0.315225 0.000000
0.576536 0.315225 0.000000
0.699999 0.500000 0.000000
0.684775 0.423464 0.000000
0.684775 0.576536 0.000000
0.500000 0.699999 0.000000
0.576536 0.684775 0.000000
0.423464 0.684775 0.000000
0.300001 0.500000 0.000000
0.315225 0.576536 0.000000
0.315225 0.423464 0.000000
0.389290 0.389290 0.000000
0.404645 0.404645 0.000000
0.373934 0.373934 0.000000
0.610710 0.389290 0.000000
0.595355 0.404645 0.000000
0.626066 0.373934 0.000000
0.610710 0.610710 0.000000
0.595355 0.595355 0.000000
0.626066 0.626066 0.000000
0.389290 0.610710 0.000000
0.404645 0.595355 0.000000
0.373934 0.626066 0.000000
0.179290 0.179290 0.000000
0.268934 0.268934 0.000000
0.089645 0.089645 0.000000
0.820710 0.179290 0.000000
0.731066 0.268934 0.000000
0.910355 0.089645 0.000000
0.820710 0.820710 0.000000
0.731066 0.731066 0.000000
0.910355 0.910355 0.000000
0.179290 0.820710 0.000000
0.268934 0.731066 0.000000
0.089645 0.910355 0.000000
1.500000 0.000000 0.000000
1.250000 0.000000 0.000000
1.750000 0.000000 0.000000
2.000000 0.500000 0.000000
2.000000 0.250000 0.000000
2.000000 0.750000 0.000000
1.500000 1.000000 0.000000
1.750000 1.000000 0.000000
1.250000 1.000000 0.000000
1.500000 0.420000 0.000000
1.460000 0.420000 0.000000
1.540000 0.420000 0.000000
1.580000 0.500000 0.000000
1.580000 0.460000 0.000000
1.580000 0.540000 0.000000
1.500000 0.580000 0.000000
1.540000 0.580000 0.000000
1.460000 0.580000 0.000000
1.420000 0.500000 0.000000
1.420000 0.540000 0.000000
1.420000 0.460000 0.000000
1.500000 0.300001 0.000000
1.423464 0.315225 0.000000
1.576536 0.315225 0.000000
1.699999 0.500000 0.000000
1.684775 0.423464 0.000000
1.684775 0.576536 0.000000
1.500000 0.699999 0.000000
1.576536 0.684775 0.000000
1.423464 0.684775 0.000000
1.300001 0.500000 0.000000
1.315225 0.576536 0.000000
1.315225 0.423464 0.000000
1.389290 0.389290 0.000000
1.404645 0.404645 0.000000
1.373934 0.373934 0.000000
1.610710 0.389290 0.000000
1.595355 0.404645 0.000000
1.626066 0.373934 0.000000
1.610710 0.610710 0.000000
1.595355 0.595355 0.000000
1.626066 0.626066 0.000000
1.389290 0.610710 0.000000
1.404645 0.595355 0.000000
1.373934 0.626066 0.000000
1.179290 0.179290 0.000000
1.268934 0.268934 0.000000
1.089645 0.089645 0.000000
1.820710 0.179290 0.000000
1.731066 0.268934 0.000000
1.910355 0.089645 0.000000
1.820710 0.820710 0.000000
1.731066 0.731066 0.000000
1.910355 0.910355 0.000000
1.179290 0.820710 0.000000
1.268934 0.731066 0.000000
1.089645 0.910355 0.000000
2.500000 0.000000 0.000000
2.250000 0.000000 0.000000
2.750000 0.000000 0.000000
3.000000 0.500000 0.000000
3.000000 0.250000 0.000000
3.000000 0.750000 0.000000
2.500000 1.000000 0.000000
2.750000 1.000000 0.000000
2.250000 1.000000 0.000000
2.500000 0.420000 0.000000
2.460000 0.420000 0.000000
2.540000 0.420000 0.000000
2.580000 0.500000 0.000000
2.580000 0.460000 0.000000
2.580000 0.540000 0.000000
2.500000 0.580000 0.000000
2.540000 0.580000 0.000000
2.460000 0.580000 0.000000
2.420000 0.500000 0.000000
2.420000 0.540000 0.000000
2.420000 0.460000 0.000000
2.500000 0.300001 0.000000
2.423464 0.315225 0.000000
2.576536 0.315225 0.000000
2.699999 0.500000 0.000000
2.684775 0.423464 0.000000
2.684775 0.576536 0.000000
2.500000 0.699999 0.000000
2.576536 0.684775 0.000000
2.423464 0.684775 0.000000
2.300001 0.500000 0.000000
2.315225 0.576536 0.000000
2.315225 0.423464 0.000000
2.389289 0.389289 0.000000
2.404645 0.404645 0.000000
2.373934 0.373934 0.000000
2.610711 0.389289 0.000000
2.595355 0.404645 0.000000
2.626066 0.373934 0.000000
2.610711 0.610711 0.000000
2.595355 0.595355 0.000000
2.626066 0.626066 0.000000
2.389289 0.610711 0.000000
2.404645 0.595355 0.000000
2.373934 0.626066 0.000000
2.179290 0.179290 0.000000
2.268934 0.268934 0.000000
2.089645 0.089645 0.000000
2.820710 0.179290 0.000000
2.731066 0.268934 0.000000
2.910355 0.089645 0.000000
2.820710 0.820710 0.000000
2.731066 0.731066 0.000000
2.910355 0.910355 0.000000
2.179290 0.820710 0.000000
2.268934 0.731066 0.000000
2.089645 0.910355 0.000000
3.500000 0.000000 0.000000
3.250000 0.000000 0.000000
3.750000 0.000000 0.000000
4.000000 0.500000 0.000000
4.000000 0.250000 0.000000
4.000000 0.750000 0.000000
3.500000 1.000000 0.000000
3.750000 1.000000 0.000000
3.250000 1.000000 0.000000
3.500000 0.420000 0.000000
3.460000 0.420000 0.000000
3.540000 0.420000 0.000000
3.580000 0.500000 0.000000
3.580000 0.460000 0.000000
3.580000 0.540000 0.000000
3.500000 0.580000 0.000000
3.540000 0.580000 0.000000
3.460000 0.580000 0.000000
3.420000 0.500000 0.000000
3.420000 0.540000 0.000000
3.420000 0.460000 0.000000
3.500000 0.300001 0.000000
3.423464 0.315225 0.000000
3.576536 0.315225 0.000000
3.699999 0.500000 0.000000
3.684775 0.423464 0.000000
3.684775 0.576536 0.000000
3.500000 0.699999 0.000000
3.576536 0.684775 0.000000
3.423464 0.684775 0.000000
3.300001 0.500000 0.000000
3.315225 0.576536 0.000000
3.315225 0.423464 0.000000
3.389289 0.389289 0.000000
3.404645 0.404645 0.000000
3.373934 0.373934 0.000000
3.610711 0.389289 0.000000
3.595355 0.404645 0.000000
3.626066 0.373934 0.000000
3.610711 0.610711 0.000000
[...]
POINT_DATA 1761
VECTORS sol double
+0.000000 +0.000000 0
+0.000000 +0.000000 0
-0.268057 +0.027952 0
+0.000000 +0.000000 0
-0.144248 +0.015042 0
-0.179111 +0.007856 0
-0.229555 +0.023937 0
-0.185888 +0.030205 0
-0.110508 +0.011523 0
-0.164879 -0.000877 0
-0.257467 +0.026848 0
-0.176195 +0.036442 0
+0.000000 +0.000000 0
+0.095400 -0.314611 0
-0.127774 -0.161444 0
-0.098340 -0.197167 0
-0.104191 -0.239217 0
-0.145563 -0.192243 0
-0.125550 -0.130576 0
-0.081612 -0.185315 0
-0.084564 -0.265739 0
-0.164978 -0.176622 0
+0.000000 +0.000000 0
-0.268057 +0.027952 0
-0.098340 -0.197167 0
-0.127774 -0.161444 0
-0.145563 -0.192243 0
-0.104191 -0.239217 0
-0.081612 -0.185315 0
-0.125550 -0.130576 0
-0.164978 -0.176622 0
-0.084564 -0.265739 0
+0.000000 +0.000000 0
+0.000000 +0.000000 0
-0.179111 +0.007856 0
-0.144248 +0.015042 0
-0.185888 +0.030205 0
-0.229555 +0.023937 0
-0.164879 -0.000877 0
-0.110508 +0.011523 0
-0.176195 +0.036442 0
-0.257467 +0.026848 0
-0.095400 +0.314611 0
+0.000000 +0.000000 0
-0.237225 +0.199505 0
-0.275463 +0.236146 0
-0.260808 +0.277277 0
-0.228241 +0.231221 0
-0.215524 +0.166142 0
-0.286363 +0.223686 0
-0.256509 +0.301305 0
-0.202997 +0.214993 0
+0.536114 -0.055904 0
+0.097026 -0.010117 0
+0.202694 -0.085628 0
+0.276777 -0.028861 0
+0.162305 +0.047568 0
+0.027142 -0.002830 0
+0.205864 -0.134287 0
+0.340834 -0.035541 0
+0.135209 +0.098721 0
-0.095400 +0.314611 0
+0.202694 -0.085628 0
+0.097026 -0.010117 0
+0.162305 +0.047568 0
+0.276777 -0.028861 0
+0.205864 -0.134287 0
+0.027142 -0.002830 0
+0.135209 +0.098721 0
+0.340834 -0.035541 0
+0.000000 +0.000000 0
-0.275463 +0.236146 0
-0.237225 +0.199505 0
-0.228241 +0.231221 0
-0.260808 +0.277277 0
-0.286363 +0.223686 0
-0.215524 +0.166142 0
-0.202997 +0.214993 0
-0.256509 +0.301305 0
-0.268057 +0.027952 0
+0.000000 +0.000000 0
-0.228241 +0.231221 0
-0.260808 +0.277277 0
-0.275463 +0.236146 0
-0.237225 +0.199505 0
-0.202997 +0.214993 0
-0.256509 +0.301305 0
-0.286363 +0.223686 0
-0.215524 +0.166142 0
+0.095400 -0.314611 0
+0.162305 +0.047568 0
+0.276777 -0.028861 0
+0.202694 -0.085628 0
+0.097026 -0.010117 0
+0.135209 +0.098721 0
+0.340834 -0.035541 0
+0.205864 -0.134287 0
+0.027142 -0.002830 0
-0.268057 +0.027952 0
+0.276777 -0.028861 0
+0.162305 +0.047568 0
+0.097026 -0.010117 0
+0.202694 -0.085628 0
+0.340834 -0.035541 0
+0.135209 +0.098721 0
+0.027142 -0.002830 0
+0.205864 -0.134287 0
+0.000000 +0.000000 0
-0.260808 +0.277277 0
-0.228241 +0.231221 0
-0.237225 +0.199505 0
-0.275463 +0.236146 0
-0.256509 +0.301305 0
-0.202997 +0.214993 0
-0.215524 +0.166142 0
-0.286363 +0.223686 0
+0.000000 +0.000000 0
+0.000000 +0.000000 0
-0.185888 +0.030205 0
-0.229555 +0.023937 0
-0.179111 +0.007856 0
-0.144248 +0.015042 0
-0.176195 +0.036442 0
-0.257467 +0.026848 0
-0.164879 -0.000877 0
-0.110508 +0.011523 0
+0.000000 +0.000000 0
-0.145563 -0.192243 0
-0.104191 -0.239217 0
-0.098340 -0.197167 0
-0.127774 -0.161444 0
-0.164978 -0.176622 0
-0.084564 -0.265739 0
-0.081612 -0.185315 0
-0.125550 -0.130576 0
+0.000000 +0.000000 0
-0.104191 -0.239217 0
-0.145563 -0.192243 0
-0.127774 -0.161444 0
-0.098340 -0.197167 0
-0.084564 -0.265739 0
-0.164978 -0.176622 0
-0.125550 -0.130576 0
-0.081612 -0.185315 0
+0.000000 +0.000000 0
-0.229555 +0.023937 0
-0.185888 +0.030205 0
-0.144248 +0.015042 0
-0.179111 +0.007856 0
-0.257467 +0.026848 0
-0.176195 +0.036442 0
-0.110508 +0.011523 0
-0.164879 -0.000877 0
+0.000000 +0.000000 0
+0.000000 +0.000000 0
+0.000000 +0.000000 0
-0.221033 -0.059669 0
-0.124406 -0.041715 0
-0.268965 -0.036278 0
-0.272836 +0.111168 0
-0.309250 +0.096572 0
-0.158655 +0.071232 0
+0.000000 +0.000000 0
+0.000000 +0.000000 0
+0.000000 +0.000000 0
-0.163567 +0.012650 0
-0.154351 +0.014133 0
-0.171833 +0.010561 0
-0.205966 +0.014711 0
-0.192919 +0.011000 0
-0.218184 +0.019029 0
-0.210204 +0.028685 0
-0.220515 +0.026717 0
-0.198629 +0.029829 0
-0.166327 +0.021750 0
-0.176440 +0.025756 0
-0.155580 +0.018185 0
-0.121416 +0.005568 0
-0.112863 +0.008577 0
-0.138804 +0.002484 0
-0.223651 +0.001450 0
-0.194340 -0.001884 0
-0.245344 +0.012184 0
-0.237348 +0.046621 0
-0.253736 +0.039858 0
-0.208211 +0.043860 0
-0.125858 +0.020216 0
-0.146313 +0.027247 0
-0.114862 +0.015170 0
-0.127329 +0.013277 0
-0.135743 +0.014155 0
-0.118747 +0.012382 0
-0.172537 +0.003461 0
-0.176018 +0.005631 0
-0.168971 +0.001205 0
-0.243702 +0.025412 0
-0.236748 +0.024687 0
-0.250791 +0.026151 0
-0.181637 +0.033471 0
-0.183986 +0.031908 0
-0.179251 +0.035106 0
-0.030263 +0.003156 0
-0.066551 +0.006940 0
-0.007886 +0.000822 0
-0.093033 -0.015572 0
-0.132912 -0.010508 0
-0.047813 -0.012210 0
-0.300415 +0.031326 0
-0.285453 +0.029766 0
-0.293843 +0.030641 0
-0.108861 +0.036625 0
-0.148173 +0.039819 0
-0.058582 +0.023305 0
+0.000000 +0.000000 0
+0.000000 +0.000000 0
+0.000000 +0.000000 0
-0.057676 -0.274642 0
-0.045864 -0.156075 0
-0.010301 -0.327514 0
-0.039396 -0.193830 0
+0.057429 -0.279888 0
-0.162646 -0.079573 0
-0.112618 -0.180135 0
-0.120134 -0.170958 0
-0.105324 -0.188895 0
-0.104177 -0.221231 0
-0.101948 -0.209916 0
-0.104926 -0.231005 0
-0.124241 -0.216779 0
-0.114013 -0.228298 0
-0.134798 -0.204730 0
-0.139509 -0.179691 0
-0.143263 -0.186700 0
-0.134316 -0.171238 0
-0.089895 -0.138239 0
-0.103898 -0.130568 0
-0.083227 -0.156540 0
-0.082312 -0.246301 0
-0.082205 -0.216998 0
-0.081082 -0.263172 0
-0.116828 -0.227923 0
-0.095823 -0.251476 0
-0.143128 -0.200438 0
-0.167169 -0.144961 0
-0.173510 -0.157333 0
-0.148200 -0.136107 0
-0.127221 -0.145981 0
-0.127709 -0.153686 0
-0.126710 -0.138164 0
-0.089875 -0.191898 0
-0.094070 -0.194774 0
-0.085667 -0.188955 0
-0.094905 -0.252555 0
-0.099729 -0.245956 0
-0.089996 -0.259240 0
-0.155109 -0.185096 0
-0.150298 -0.188911 0
-0.159941 -0.181210 0
-0.082263 -0.051090 0
-0.109227 -0.088617 0
-0.045007 -0.021466 0
-0.038809 -0.110686 0
-0.059413 -0.153540 0
-0.019213 -0.058459 0
-0.001946 -0.315963 0
-0.046582 -0.295208 0
+0.045994 -0.321570 0
-0.220015 -0.091790 0
-0.192554 -0.139656 0
-0.244650 -0.034951 0
+0.000000 +0.000000 0
+0.000000 +0.000000 0
+0.000000 +0.000000 0
-0.221033 -0.059669 0
-0.124406 -0.041715 0
-0.268965 -0.036278 0
-0.039396 -0.193830 0
-0.162646 -0.079573 0
+0.057429 -0.279888 0
-0.112618 -0.180135 0
-0.105324 -0.188895 0
-0.120134 -0.170958 0
-0.139509 -0.179691 0
-0.134316 -0.171238 0
-0.143263 -0.186700 0
-0.124241 -0.216779 0
-0.134798 -0.204730 0
-0.114013 -0.228298 0
-0.104177 -0.221231 0
-0.104926 -0.231005 0
-0.101948 -0.209916 0
-0.089895 -0.138239 0
-0.083227 -0.156540 0
-0.103898 -0.130568 0
-0.167169 -0.144961 0
-0.148200 -0.136107 0
-0.173510 -0.157333 0
-0.116828 -0.227923 0
-0.143128 -0.200438 0
-0.095823 -0.251476 0
-0.082312 -0.246301 0
-0.081082 -0.263172 0
-0.082205 -0.216998 0
-0.089875 -0.191898 0
-0.094070 -0.194774 0
-0.085667 -0.188955 0
-0.127221 -0.145981 0
-0.127709 -0.153686 0
-0.126710 -0.138164 0
-0.155109 -0.185096 0
-0.150298 -0.188911 0
-0.159941 -0.181210 0
-0.094905 -0.252555 0
-0.099729 -0.245956 0
-0.089996 -0.259240 0
-0.038809 -0.110686 0
-0.059413 -0.153540 0
-0.019213 -0.058459 0
-0.082263 -0.051090 0
-0.109227 -0.088617 0
-0.045007 -0.021466 0
-0.220015 -0.091790 0
-0.192554 -0.139656 0
-0.244650 -0.034951 0
-0.001946 -0.315963 0
-0.046582 -0.295208 0
+0.045994 -0.321570 0
+0.000000 +0.000000 0
+0.000000 +0.000000 0
+0.000000 +0.000000 0
+0.000000 +0.000000 0
+0.000000 +0.000000 0
+0.000000 +0.000000 0
-0.272836 +0.111168 0
-0.158655 +0.071232 0
-0.309250 +0.096572 0
-0.163567 +0.012650 0
-0.171833 +0.010561 0
-0.154351 +0.014133 0
-0.166327 +0.021750 0
-0.155580 +0.018185 0
-0.176440 +0.025756 0
-0.210204 +0.028685 0
-0.198629 +0.029829 0
-0.220515 +0.026717 0
-0.205966 +0.014711 0
-0.218184 +0.019029 0
-0.192919 +0.011000 0
-0.121416 +0.005568 0
-0.138804 +0.002484 0
-0.112863 +0.008577 0
-0.125858 +0.020216 0
-0.114862 +0.015170 0
-0.146313 +0.027247 0
-0.237348 +0.046621 0
-0.208211 +0.043860 0
-0.253736 +0.039858 0
-0.223651 +0.001450 0
-0.245344 +0.012184 0
-0.194340 -0.001884 0
-0.172537 +0.003461 0
-0.176018 +0.005631 0
-0.168971 +0.001205 0
-0.127329 +0.013277 0
-0.135743 +0.014155 0
-0.118747 +0.012382 0
-0.181637 +0.033471 0
-0.183986 +0.031908 0
-0.179251 +0.035106 0
-0.243702 +0.025412 0
-0.236748 +0.024687 0
-0.250791 +0.026151 0
-0.093033 -0.015572 0
-0.132912 -0.010508 0
-0.047813 -0.012210 0
-0.030263 +0.003156 0
-0.066551 +0.006940 0
-0.007886 +0.000822 0
-0.108861 +0.036625 0
-0.148173 +0.039819 0
-0.058582 +0.023305 0
-0.300415 +0.031326 0
-0.285453 +0.029766 0
-0.293843 +0.030641 0
-0.163357 +0.214972 0
-0.223101 +0.119797 0
-0.114105 +0.285798 0
-0.233441 +0.304998 0
-0.216084 +0.351120 0
-0.146603 +0.176145 0
+0.000000 +0.000000 0
+0.000000 +0.000000 0
+0.000000 +0.000000 0
-0.261153 +0.221470 0
-0.250328 +0.211347 0
-0.269542 +0.229746 0
-0.268116 +0.257693 0
-0.271816 +0.247130 0
-0.264434 +0.267761 0
-0.249530 +0.258115 0
-0.256448 +0.268687 0
-0.240068 +0.245580 0
-0.232784 +0.216152 0
-0.230500 +0.223914 0
-0.235043 +0.207994 0
-0.268869 +0.190429 0
-0.243117 +0.176912 0
-0.283372 +0.204974 0
-0.267197 +0.267967 0
-0.278002 +0.244351 0
-0.259571 +0.288535 0
-0.241937 +0.280112 0
-0.251192 +0.297820 0
-0.223471 +0.248872 0
-0.182340 +0.166627 0
-0.186697 +0.184686 0
-0.192453 +0.161470 0
-0.226952 +0.182913 0
-0.232296 +0.191226 0
-0.221512 +0.174476 0
-0.281157 +0.230588 0
-0.278421 +0.233616 0
-0.283871 +0.227489 0
-0.259269 +0.289487 0
-0.260276 +0.283496 0
-0.258226 +0.295551 0
-0.215923 +0.223785 0
-0.222193 +0.227753 0
-0.209596 +0.219744 0
-0.119631 +0.072143 0
-0.171858 +0.117927 0
-0.061389 +0.032561 0
-0.291868 +0.145167 0
-0.292591 +0.190245 0
-0.282516 +0.089922 0
-0.199949 +0.337016 0
-0.234503 +0.324519 0
-0.152390 +0.332664 0
-0.110662 +0.126272 0
-0.159449 +0.176362 0
-0.057079 +0.066414 0
+0.384391 -0.155303 0
+0.238511 -0.244083 0
+0.492067 -0.083519 0
+0.312232 +0.082662 0
+0.471896 -0.016999 0
+0.101227 +0.208657 0
+0.151943 -0.049294 0
+0.124877 -0.029968 0
+0.177953 -0.067901 0
+0.241298 -0.056252 0
+0.222310 -0.070767 0
+0.259499 -0.042245 0
+0.221828 +0.007959 0
+0.249989 -0.010882 0
+0.192509 +0.027512 0
+0.130995 +0.019790 0
+0.147050 +0.034011 0
+0.114264 +0.005031 0
+0.094483 -0.095252 0
+0.052962 -0.052475 0
+0.146879 -0.123392 0
+0.308508 -0.102790 0
+0.261458 -0.125181 0
+0.336649 -0.071849 0
+0.264281 +0.043062 0
+0.313637 +0.004040 0
+0.200136 +0.077048 0
+0.041001 +0.081124 0
+0.079195 +0.099818 0
+0.023557 +0.044496 0
+0.062095 -0.006475 0
+0.079514 -0.008291 0
+0.044472 -0.004637 0
+0.204853 -0.110034 0
+0.203998 -0.097902 0
+0.205685 -0.122280 0
+0.308936 -0.032215 0
+0.292977 -0.030550 0
+0.325066 -0.033897 0
+0.149321 +0.073103 0
+0.156007 +0.060362 0
+0.142537 +0.085969 0
-0.150944 +0.015740 0
-0.066591 +0.006944 0
-0.217551 +0.022685 0
+0.173351 -0.249301 0
+0.195557 -0.196083 0
+0.138814 -0.287893 0
+0.481621 -0.050221 0
+0.418594 -0.043649 0
+0.519280 -0.054148 0
+0.028543 +0.228248 0
+0.085528 +0.166773 0
-0.032418 +0.276799 0
-0.163357 +0.214972 0
-0.223101 +0.119797 0
-0.114105 +0.285798 0
+0.312232 +0.082662 0
+0.101227 +0.208657 0
+0.471896 -0.016999 0
+0.151943 -0.049294 0
+0.177953 -0.067901 0
+0.124877 -0.029968 0
+0.130995 +0.019790 0
+0.114264 +0.005031 0
+0.147050 +0.034011 0
+0.221828 +0.007959 0
+0.192509 +0.027512 0
+0.249989 -0.010882 0
+0.241298 -0.056252 0
+0.259499 -0.042245 0
+0.222310 -0.070767 0
+0.094483 -0.095252 0
+0.146879 -0.123392 0
+0.052962 -0.052475 0
+0.041001 +0.081124 0
+0.023557 +0.044496 0
+0.079195 +0.099818 0
+0.264281 +0.043062 0
+0.200136 +0.077048 0
+0.313637 +0.004040 0
+0.308508 -0.102790 0
+0.336649 -0.071849 0
+0.261458 -0.125181 0
+0.204853 -0.110034 0
+0.203998 -0.097902 0
+0.205685 -0.122280 0
+0.062095 -0.006475 0
+0.079514 -0.008291 0
+0.044472 -0.004637 0
+0.149321 +0.073103 0
+0.156007 +0.060362 0
+0.142537 +0.085969 0
+0.308936 -0.032215 0
+0.292977 -0.030550 0
+0.325066 -0.033897 0
+0.173351 -0.249301 0
+0.195557 -0.196083 0
+0.138814 -0.287893 0
-0.150944 +0.015740 0
-0.066591 +0.006944 0
-0.217551 +0.022685 0
+0.028543 +0.228248 0
+0.085528 +0.166773 0
-0.032418 +0.276799 0
+0.481621 -0.050221 0
+0.418594 -0.043649 0
+0.519280 -0.054148 0
+0.000000 +0.000000 0
+0.000000 +0.000000 0
+0.000000 +0.000000 0
-0.233441 +0.304998 0
-0.146603 +0.176145 0
-0.216084 +0.351120 0
-0.261153 +0.221470 0
-0.269542 +0.229746 0
-0.250328 +0.211347 0
-0.232784 +0.216152 0
-0.235043 +0.207994 0
-0.230500 +0.223914 0
-0.249530 +0.258115 0
-0.240068 +0.245580 0
-0.256448 +0.268687 0
-0.268116 +0.257693 0
-0.264434 +0.267761 0
-0.271816 +0.247130 0
-0.268869 +0.190429 0
-0.283372 +0.204974 0
-0.243117 +0.176912 0
-0.182340 +0.166627 0
-0.192453 +0.161470 0
-0.186697 +0.184686 0
-0.241937 +0.280112 0
-0.223471 +0.248872 0
-0.251192 +0.297820 0
-0.267197 +0.267967 0
-0.259571 +0.288535 0
-0.278002 +0.244351 0
-0.281157 +0.230588 0
-0.278421 +0.233616 0
-0.283871 +0.227489 0
-0.226952 +0.182913 0
-0.232296 +0.191226 0
-0.221512 +0.174476 0
-0.215923 +0.223785 0
-0.222193 +0.227753 0
-0.209596 +0.219744 0
-0.259269 +0.289487 0
-0.260276 +0.283496 0
-0.258226 +0.295551 0
-0.291868 +0.145167 0
-0.292591 +0.190245 0
-0.282516 +0.089922 0
-0.119631 +0.072143 0
-0.171858 +0.117927 0
-0.061389 +0.032561 0
-0.110662 +0.126272 0
-0.159449 +0.176362 0
-0.057079 +0.066414 0
-0.199949 +0.337016 0
-0.234503 +0.324519 0
-0.152390 +0.332664 0
-0.163357 +0.214972 0
-0.114105 +0.285798 0
-0.223101 +0.119797 0
-0.272836 +0.111168 0
-0.309250 +0.096572 0
-0.158655 +0.071232 0
+0.000000 +0.000000 0
+0.000000 +0.000000 0
+0.000000 +0.000000 0
-0.249530 +0.258115 0
-0.240068 +0.245580 0
-0.256448 +0.268687 0
-0.268116 +0.257693 0
-0.264434 +0.267761 0
-0.271816 +0.247130 0
-0.261153 +0.221470 0
-0.269542 +0.229746 0
-0.250328 +0.211347 0
-0.232784 +0.216152 0
-0.235043 +0.207994 0
-0.230500 +0.223914 0
-0.241937 +0.280112 0
-0.223471 +0.248872 0
-0.251192 +0.297820 0
-0.267197 +0.267967 0
-0.259571 +0.288535 0
-0.278002 +0.244351 0
-0.268869 +0.190429 0
-0.283372 +0.204974 0
-0.243117 +0.176912 0
-0.182340 +0.166627 0
-0.192453 +0.161470 0
-0.186697 +0.184686 0
-0.215923 +0.223785 0
-0.222193 +0.227753 0
-0.209596 +0.219744 0
-0.259269 +0.289487 0
-0.260276 +0.283496 0
-0.258226 +0.295551 0
-0.281157 +0.230588 0
-0.278421 +0.233616 0
-0.283871 +0.227489 0
-0.226952 +0.182913 0
-0.232296 +0.191226 0
-0.221512 +0.174476 0
-0.110662 +0.126272 0
-0.159449 +0.176362 0
-0.057079 +0.066414 0
-0.199949 +0.337016 0
-0.234503 +0.324519 0
-0.152390 +0.332664 0
-0.291868 +0.145167 0
-0.292591 +0.190245 0
-0.282516 +0.089922 0
-0.119631 +0.072143 0
-0.171858 +0.117927 0
-0.061389 +0.032561 0
+0.384391 -0.155303 0
+0.492067 -0.083519 0
+0.238511 -0.244083 0
-0.039396 -0.193830 0
+0.057429 -0.279888 0
-0.162646 -0.079573 0
+0.221828 +0.007959 0
+0.192509 +0.027512 0
+0.249989 -0.010882 0
+0.241298 -0.056252 0
+0.259499 -0.042245 0
+0.222310 -0.070767 0
+0.151943 -0.049294 0
+0.177953 -0.067901 0
+0.124877 -0.029968 0
+0.130995 +0.019790 0
+0.114264 +0.005031 0
+0.147050 +0.034011 0
+0.264281 +0.043062 0
+0.200136 +0.077048 0
+0.313637 +0.004040 0
+0.308508 -0.102790 0
+0.336649 -0.071849 0
+0.261458 -0.125181 0
+0.094483 -0.095252 0
+0.146879 -0.123392 0
+0.052962 -0.052475 0
+0.041001 +0.081124 0
+0.023557 +0.044496 0
+0.079195 +0.099818 0
+0.149321 +0.073103 0
+0.156007 +0.060362 0
+0.142537 +0.085969 0
+0.308936 -0.032215 0
+0.292977 -0.030550 0
+0.325066 -0.033897 0
+0.204853 -0.110034 0
+0.203998 -0.097902 0
+0.205685 -0.122280 0
+0.062095 -0.006475 0
+0.079514 -0.008291 0
+0.044472 -0.004637 0
+0.028543 +0.228248 0
+0.085528 +0.166773 0
-0.032418 +0.276799 0
+0.481621 -0.050221 0
+0.418594 -0.043649 0
+0.519280 -0.054148 0
+0.173351 -0.249301 0
+0.195557 -0.196083 0
+0.138814 -0.287893 0
-0.150944 +0.015740 0
-0.066591 +0.006944 0
-0.217551 +0.022685 0
-0.163357 +0.214972 0
-0.114105 +0.285798 0
-0.223101 +0.119797 0
-0.039396 -0.193830 0
-0.162646 -0.079573 0
+0.057429 -0.279888 0
+0.221828 +0.007959 0
+0.249989 -0.010882 0
+0.192509 +0.027512 0
+0.130995 +0.019790 0
+0.147050 +0.034011 0
+0.114264 +0.005031 0
+0.151943 -0.049294 0
+0.124877 -0.029968 0
+0.177953 -0.067901 0
+0.241298 -0.056252 0
+0.222310 -0.070767 0
+0.259499 -0.042245 0
+0.264281 +0.043062 0
+0.313637 +0.004040 0
+0.200136 +0.077048 0
+0.041001 +0.081124 0
+0.079195 +0.099818 0
+0.023557 +0.044496 0
+0.094483 -0.095252 0
+0.052962 -0.052475 0
+0.146879 -0.123392 0
+0.308508 -0.102790 0
+0.261458 -0.125181 0
+0.336649 -0.071849 0
+0.308936 -0.032215 0
+0.292977 -0.030550 0
+0.325066 -0.033897 0
+0.149321 +0.073103 0
+0.156007 +0.060362 0
+0.142537 +0.085969 0
+0.062095 -0.006475 0
+0.079514 -0.008291 0
+0.044472 -0.004637 0
+0.204853 -0.110034 0
+0.203998 -0.097902 0
+0.205685 -0.122280 0
+0.481621 -0.050221 0
+0.418594 -0.043649 0
+0.519280 -0.054148 0
+0.028543 +0.228248 0
+0.085528 +0.166773 0
-0.032418 +0.276799 0
-0.150944 +0.015740 0
-0.066591 +0.006944 0
-0.217551 +0.022685 0
+0.173351 -0.249301 0
+0.195557 -0.196083 0
+0.138814 -0.287893 0
+0.000000 +0.000000 0
+0.000000 +0.000000 0
+0.000000 +0.000000 0
-0.272836 +0.111168 0
-0.158655 +0.071232 0
-0.309250 +0.096572 0
-0.249530 +0.258115 0
-0.256448 +0.268687 0
-0.240068 +0.245580 0
-0.232784 +0.216152 0
-0.230500 +0.223914 0
-0.235043 +0.207994 0
-0.261153 +0.221470 0
-0.250328 +0.211347 0
-0.269542 +0.229746 0
-0.268116 +0.257693 0
-0.271816 +0.247130 0
-0.264434 +0.267761 0
-0.241937 +0.280112 0
-0.251192 +0.297820 0
-0.223471 +0.248872 0
-0.182340 +0.166627 0
-0.186697 +0.184686 0
-0.192453 +0.161470 0
-0.268869 +0.190429 0
-0.243117 +0.176912 0
-0.283372 +0.204974 0
-0.267197 +0.267967 0
-0.278002 +0.244351 0
-0.259571 +0.288535 0
-0.259269 +0.289487 0
-0.260276 +0.283496 0
-0.258226 +0.295551 0
-0.215923 +0.223785 0
-0.222193 +0.227753 0
-0.209596 +0.219744 0
-0.226952 +0.182913 0
-0.232296 +0.191226 0
-0.221512 +0.174476 0
-0.281157 +0.230588 0
-0.278421 +0.233616 0
-0.283871 +0.227489 0
-0.199949 +0.337016 0
-0.234503 +0.324519 0
-0.152390 +0.332664 0
-0.110662 +0.126272 0
-0.159449 +0.176362 0
-0.057079 +0.066414 0
-0.119631 +0.072143 0
-0.171858 +0.117927 0
-0.061389 +0.032561 0
-0.291868 +0.145167 0
-0.292591 +0.190245 0
-0.282516 +0.089922 0
-0.221033 -0.059669 0
-0.268965 -0.036278 0
-0.124406 -0.041715 0
+0.000000 +0.000000 0
+0.000000 +0.000000 0
+0.000000 +0.000000 0
+0.000000 +0.000000 0
+0.000000 +0.000000 0
+0.000000 +0.000000 0
-0.210204 +0.028685 0
-0.198629 +0.029829 0
-0.220515 +0.026717 0
-0.205966 +0.014711 0
-0.218184 +0.019029 0
-0.192919 +0.011000 0
-0.163567 +0.012650 0
-0.171833 +0.010561 0
-0.154351 +0.014133 0
-0.166327 +0.021750 0
-0.155580 +0.018185 0
-0.176440 +0.025756 0
-0.237348 +0.046621 0
-0.208211 +0.043860 0
-0.253736 +0.039858 0
-0.223651 +0.001450 0
-0.245344 +0.012184 0
-0.194340 -0.001884 0
-0.121416 +0.005568 0
-0.138804 +0.002484 0
-0.112863 +0.008577 0
-0.125858 +0.020216 0
-0.114862 +0.015170 0
-0.146313 +0.027247 0
-0.181637 +0.033471 0
-0.183986 +0.031908 0
-0.179251 +0.035106 0
-0.243702 +0.025412 0
-0.236748 +0.024687 0
-0.250791 +0.026151 0
-0.172537 +0.003461 0
-0.176018 +0.005631 0
-0.168971 +0.001205 0
-0.127329 +0.013277 0
-0.135743 +0.014155 0
-0.118747 +0.012382 0
-0.108861 +0.036625 0
-0.148173 +0.039819 0
-0.058582 +0.023305 0
-0.300415 +0.031326 0
-0.285453 +0.029766 0
-0.293843 +0.030641 0
-0.093033 -0.015572 0
-0.132912 -0.010508 0
-0.047813 -0.012210 0
-0.030263 +0.003156 0
-0.066551 +0.006940 0
-0.007886 +0.000822 0
-0.057676 -0.274642 0
-0.010301 -0.327514 0
-0.045864 -0.156075 0
+0.000000 +0.000000 0
+0.000000 +0.000000 0
+0.000000 +0.000000 0
-0.124241 -0.216779 0
-0.134798 -0.204730 0
-0.114013 -0.228298 0
-0.104177 -0.221231 0
-0.104926 -0.231005 0
-0.101948 -0.209916 0
-0.112618 -0.180135 0
-0.105324 -0.188895 0
-0.120134 -0.170958 0
-0.139509 -0.179691 0
-0.134316 -0.171238 0
-0.143263 -0.186700 0
-0.116828 -0.227923 0
-0.143128 -0.200438 0
-0.095823 -0.251476 0
-0.082312 -0.246301 0
-0.081082 -0.263172 0
-0.082205 -0.216998 0
-0.089895 -0.138239 0
-0.083227 -0.156540 0
-0.103898 -0.130568 0
-0.167169 -0.144961 0