# vtk DataFile Version 2.0
MyTitle
ASCII
DATASET UNSTRUCTURED_GRID
POINTS 1761 double
0.000000 0.000000 0.000000
1.000000 0.000000 0.000000
1.000000 1.000000 0.000000
0.000000 1.000000 0.000000
0.420000 0.420000 0.000000
0.580000 0.420000 0.000000
0.580000 0.580000 0.000000
0.420000 0.580000 0.000000
0.358579 0.358579 0.000000
0.641421 0.358579 0.000000
0.641421 0.641421 0.000000
0.358579 0.641421 0.000000
2.000000 0.000000 0.000000
2.000000 1.000000 0.000000
1.420000 0.420000 0.000000
1.580000 0.420000 0.000000
1.580000 0.580000 0.000000
1.420000 0.580000 0.000000
1.358579 0.358579 0.000000
1.641421 0.358579 0.000000
1.641421 0.641421 0.000000
1.358579 0.641421 0.000000
3.000000 0.000000 0.000000
3.000000 1.000000 0.000000
2.420000 0.420000 0.000000
2.580000 0.420000 0.000000
2.580000 0.580000 0.000000
2.420000 0.580000 0.000000
2.358579 0.358579 0.000000
2.641421 0.358579 0.000000
2.641421 0.641421 0.000000
2.358579 0.641421 0.000000
4.000000 0.000000 0.000000
4.000000 1.000000 0.000000
3.420000 0.420000 0.000000
3.580000 0.420000 0.000000
3.580000 0.580000 0.000000
3.420000 0.580000 0.000000
3.358579 0.358579 0.000000
3.641421 0.358579 0.000000
3.641421 0.641421 0.000000
3.358579 0.641421 0.000000
1.000000 2.000000 0.000000
0.000000 2.000000 0.000000
0.420000 1.420000 0.000000
0.580000 1.420000 0.000000
0.580000 1.580000 0.000000
0.420000 1.580000 0.000000
0.358579 1.358579 0.000000
0.641421 1.358579 0.000000
0.641421 1.641421 0.000000
0.358579 1.641421 0.000000
2.000000 2.000000 0.000000
1.420000 1.420000 0.000000
1.580000 1.420000 0.000000
1.580000 1.580000 0.000000
1.420000 1.580000 0.000000
1.358579 1.358579 0.000000
1.641421 1.358579 0.000000
1.641421 1.641421 0.000000
1.358579 1.641421 0.000000
3.000000 2.000000 0.000000
2.420000 1.420000 0.000000
2.580000 1.420000 0.000000
2.580000 1.580000 0.000000
2.420000 1.580000 0.000000
2.358579 1.358579 0.000000
2.641421 1.358579 0.000000
2.641421 1.641421 0.000000
2.358579 1.641421 0.000000
4.000000 2.000000 0.000000
3.420000 1.420000 0.000000
3.580000 1.420000 0.000000
3.580000 1.580000 0.000000
3.420000 1.580000 0.000000
3.358579 1.358579 0.000000
3.641421 1.358579 0.000000
3.641421 1.641421 0.000000
3.358579 1.641421 0.000000
1.000000 3.000000 0.000000
0.000000 3.000000 0.000000
0.420000 2.420000 0.000000
0.580000 2.420000 0.000000
0.580000 2.580000 0.000000
0.420000 2.580000 0.000000
0.358579 2.358579 0.000000
0.641421 2.358579 0.000000
0.641421 2.641421 0.000000
0.358579 2.641421 0.000000
2.000000 3.000000 0.000000
1.420000 2.420000 0.000000
1.580000 2.420000 0.000000
1.580000 2.580000 0.000000
1.420000 2.580000 0.000000
1.358579 2.358579 0.000000
1.641421 2.358579 0.000000
1.641421 2.641421 0.000000
1.358579 2.641421 0.000000
3.000000 3.000000 0.000000
2.420000 2.420000 0.000000
2.580000 2.420000 0.000000
2.580000 2.580000 0.000000
2.420000 2.580000 0.000000
2.358579 2.358579 0.000000
2.641421 2.358579 0.000000
2.641421 2.641421 0.000000
2.358579 2.641421 0.000000
4.000000 3.000000 0.000000
3.420000 2.420000 0.000000
3.580000 2.420000 0.000000
3.580000 2.580000 0.000000
3.420000 2.580000 0.000000
3.358579 2.358579 0.000000
3.641421 2.358579 0.000000
3.641421 2.641421 0.000000
3.358579 2.641421 0.000000
1.000000 4.000000 0.000000
0.000000 4.000000 0.000000
0.420000 3.420000 0.000000
0.580000 3.420000 0.000000
0.580000 3.580000 0.000000
0.420000 3.580000 0.000000
0.358579 3.358579 0.000000
0.641421 3.358579 0.000000
0.641421 3.641421 0.000000
0.358579 3.641421 0.000000
2.000000 4.000000 0.000000
1.420000 3.420000 0.000000
1.580000 3.420000 0.000000
1.580000 3.580000 0.000000
1.420000 3.580000 0.000000
1.358579 3.358579 0.000000
1.641421 3.358579 0.000000
1.641421 3.641421 0.000000
1.358579 3.641421 0.000000
3.000000 4.000000 0.000000
2.420000 3.420000 0.000000
2.580000 3.420000 0.000000
2.580000 3.580000 0.000000
2.420000 3.580000 0.000000
2.358579 3.358579 0.000000
2.641421 3.358579 0.000000
2.641421 3.641421 0.000000
2.358579 3.641421 0.000000
4.000000 4.000000 0.000000
3.420000 3.420000 0.000000
3.580000 3.420000 0.000000
3.580000 3.580000 0.000000
3.420000 3.580000 0.000000
3.358579 3.358579 0.000000
3.641421 3.358579 0.000000
3.641421 3.641421 0.000000
3.358579 3.641421 0.000000
0.500000 0.000000 0.000000
0.250000 0.000000 0.000000
0.750000 0.000000 0.000000
1.000000 0.500000 0.000000
1.000000 0.250000 0.000000
1.000000 0.750000 0.000000
0.500000 1.000000 0.000000
0.750000 1.000000 0.000000
0.250000 1.000000 0.000000
0.000000 0.500000 0.000000
0.000000 0.750000 0.000000
0.000000 0.250000 0.000000
0.500000 0.420000 0.000000
0.460000 0.420000 0.000000
0.540000 0.420000 0.000000
0.580000 0.500000 0.000000
0.580000 0.460000 0.000000
0.580000 0.540000 0.000000
0.500000 0.580000 0.000000
0.540000 0.580000 0.000000
0.460000 0.580000 0.000000
0.420000 0.500000 0.000000
0.420000 0.540000 0.000000
0.420000 0.460000 0.000000
0.500000 0.300001 0.000000
0.423464 0.315225 0.000000
0.576536 0.315225 0.000000
0.699999 0.500000 0.000000
0.684775 0.423464 0.000000
0.684775 0.576536 0.000000
0.500000 0.699999 0.000000
0.576536 0.684775 0.000000
0.423464 0.684775 0.000000
0.300001 0.500000 0.000000
0.315225 0.576536 0.000000
0.315225 0.423464 0.000000
0.389290 0.389290 0.000000
0.404645 0.404645 0.000000
0.373934 0.373934 0.000000
0.610710 0.389290 0.000000
0.595355 0.404645 0.000000
0.626066 0.373934 0.000000
0.610710 0.610710 0.000000
0.595355 0.595355 0.000000
0.626066 0.626066 0.000000
0.389290 0.610710 0.000000
0.404645 0.595355 0.000000
0.373934 0.626066 0.000000
0.179290 0.179290 0.000000
0.268934 0.268934 0.000000
0.089645 0.089645 0.000000
0.820710 0.179290 0.000000
0.731066 0.268934 0.000000
0.910355 0.089645 0.000000
0.820710 0.820710 0.000000
0.731066 0.731066 0.000000
0.910355 0.910355 0.000000
0.179290 0.820710 0.000000
0.268934 0.731066 0.000000
0.089645 0.910355 0.000000
1.500000 0.000000 0.000000
1.250000 0.000000 0.000000
1.750000 0.000000 0.000000
2.000000 0.500000 0.000000
2.000000 0.250000 0.000000
2.000000 0.750000 0.000000
1.500000 1.000000 0.000000
1.750000 1.000000 0.000000
1.250000 1.000000 0.000000
1.500000 0.420000 0.000000
1.460000 0.420000 0.000000
1.540000 0.420000 0.000000
1.580000 0.500000 0.000000
1.580000 0.460000 0.000000
1.580000 0.540000 0.000000
1.500000 0.580000 0.000000
1.540000 0.580000 0.000000
1.460000 0.580000 0.000000
1.420000 0.500000 0.000000
1.420000 0.540000 0.000000
1.420000 0.460000 0.000000
1.500000 0.300001 0.000000
1.423464 0.315225 0.000000
1.576536 0.315225 0.000000
1.699999 0.500000 0.000000
1.684775 0.423464 0.000000
1.684775 0.576536 0.000000
1.500000 0.699999 0.000000
1.576536 0.684775 0.000000
1.423464 0.684775 0.000000
1.300001 0.500000 0.000000
1.315225 0.576536 0.000000
1.315225 0.423464 0.000000
1.389290 0.389290 0.000000
1.404645 0.404645 0.000000
1.373934 0.373934 0.000000
1.610710 0.389290 0.000000
1.595355 0.404645 0.000000
1.626066 0.373934 0.000000
1.610710 0.610710 0.000000
1.595355 0.595355 0.000000
1.626066 0.626066 0.000000
1.389290 0.610710 0.000000
1.404645 0.595355 0.000000
1.373934 0.626066 0.000000
1.179290 0.179290 0.000000
1.268934 0.268934 0.000000
1.089645 0.089645 0.000000
1.820710 0.179290 0.000000
1.731066 0.268934 0.000000
1.910355 0.089645 0.000000
1.820710 0.820710 0.000000
1.731066 0.731066 0.000000
1.910355 0.910355 0.000000
1.179290 0.820710 0.000000
1.268934 0.731066 0.000000
1.089645 0.910355 0.000000
2.500000 0.000000 0.000000
2.250000 0.000000 0.000000
2.750000 0.000000 0.000000
3.000000 0.500000 0.000000
3.000000 0.250000 0.000000
3.000000 0.750000 0.000000
2.500000 1.000000 0.000000
2.750000 1.000000 0.000000
2.250000 1.000000 0.000000
2.500000 0.420000 0.000000
2.460000 0.420000 0.000000
2.540000 0.420000 0.000000
2.580000 0.500000 0.000000
2.580000 0.460000 0.000000
2.580000 0.540000 0.000000
2.500000 0.580000 0.000000
2.540000 0.580000 0.000000
2.460000 0.580000 0.000000
2.420000 0.500000 0.000000
2.420000 0.540000 0.000000
2.420000 0.460000 0.000000
2.500000 0.300001 0.000000
2.423464 0.315225 0.000000
2.576536 0.315225 0.000000
2.699999 0.500000 0.000000
2.684775 0.423464 0.000000
2.684775 0.576536 0.000000
2.500000 0.699999 0.000000
2.576536 0.684775 0.000000
2.423464 0.684775 0.000000
2.300001 0.500000 0.000000
2.315225 0.576536 0.000000
2.315225 0.423464 0.000000
2.389289 0.389289 0.000000
2.404645 0.404645 0.000000
2.373934 0.373934 0.000000
2.610711 0.389289 0.000000
2.595355 0.404645 0.000000
2.626066 0.373934 0.000000
2.610711 0.610711 0.000000
2.595355 0.595355 0.000000
2.626066 0.626066 0.000000
2.389289 0.610711 0.000000
2.404645 0.595355 0.000000
2.373934 0.626066 0.000000
2.179290 0.179290 0.000000
2.268934 0.268934 0.000000
2.089645 0.089645 0.000000
2.820710 0.179290 0.000000
2.731066 0.268934 0.000000
2.910355 0.089645 0.000000
2.820710 0.820710 0.000000
2.731066 0.731066 0.000000
2.910355 0.910355 0.000000
2.179290 0.820710 0.000000
2.268934 0.731066 0.000000
2.089645 0.910355 0.000000
3.500000 0.000000 0.000000
3.250000 0.000000 0.000000
3.750000 0.000000 0.000000
4.000000 0.500000 0.000000
4.000000 0.250000 0.000000
4.000000 0.750000 0.000000
3.500000 1.000000 0.000000
3.750000 1.000000 0.000000
3.250000 1.000000 0.000000
3.500000 0.420000 0.000000
3.460000 0.420000 0.000000
3.540000 0.420000 0.000000
3.580000 0.500000 0.000000
3.580000 0.460000 0.000000
3.580000 0.540000 0.000000
3.500000 0.580000 0.000000
3.540000 0.580000 0.000000
3.460000 0.580000 0.000000
3.420000 0.500000 0.000000
3.420000 0.540000 0.000000
3.420000 0.460000 0.000000
3.500000 0.300001 0.000000
3.423464 0.315225 0.000000
3.576536 0.315225 0.000000
3.699999 0.500000 0.000000
3.684775 0.423464 0.000000
3.684775 0.576536 0.000000
3.500000 0.699999 0.000000
3.576536 0.684775 0.000000
3.423464 0.684775 0.000000
3.300001 0.500000 0.000000
3.315225 0.576536 0.000000
3.315225 0.423464 0.000000
3.389289 0.389289 0.000000
3.404645 0.404645 0.000000
3.373934 0.373934 0.000000
3.610711 0.389289 0.000000
3.595355 0.404645 0.000000
3.626066 0.373934 0.000000
3.610711 0.610711 0.000000
[...]
POINT_DATA 1761
VECTORS sol double
+0.000000 +0.000000 0
+0.000000 +0.000000 0
+0.140505 -0.251856 0
+0.000000 +0.000000 0
+0.039368 -0.070568 0
+0.055363 -0.095752 0
+0.068945 -0.123585 0
+0.048906 -0.091151 0
+0.029331 -0.052576 0
+0.054388 -0.091659 0
+0.081020 -0.145230 0
+0.043588 -0.083964 0
+0.000000 +0.000000 0
+0.335270 -0.346170 0
+0.149303 -0.192745 0
+0.167015 -0.202364 0
+0.213422 -0.261016 0
+0.190103 -0.248682 0
+0.124377 -0.163923 0
+0.151652 -0.178874 0
+0.236917 -0.283579 0
+0.192488 -0.260322 0
+0.000000 +0.000000 0
+0.333639 -0.237702 0
+0.221129 -0.198399 0
+0.219096 -0.187630 0
+0.284873 -0.241736 0
+0.286953 -0.255627 0
+0.191969 -0.175919 0
+0.188589 -0.159217 0
+0.303856 -0.252160 0
+0.307381 -0.278415 0
+0.000000 +0.000000 0
+0.000000 +0.000000 0
+0.125157 -0.090637 0
+0.093482 -0.066602 0
+0.122437 -0.085762 0
+0.163715 -0.116640 0
+0.118600 -0.086953 0
+0.069648 -0.049621 0
+0.114052 -0.078800 0
+0.192388 -0.137068 0
-0.136566 -0.010008 0
+0.000000 +0.000000 0
+0.010641 -0.093955 0
+0.019594 -0.127202 0
-0.011650 -0.100663 0
-0.012626 -0.074378 0
+0.015079 -0.086054 0
+0.035616 -0.148557 0
-0.024361 -0.097430 0
-0.020494 -0.056227 0
+0.000000 +0.000000 0
+0.140752 -0.252298 0
+0.175157 -0.263820 0
+0.115020 -0.206175 0
+0.082290 -0.197656 0
+0.147084 -0.263649 0
+0.208408 -0.285668 0
+0.101827 -0.182525 0
+0.045628 -0.169694 0
+0.136566 +0.010008 0
+0.325218 -0.252823 0
+0.334225 -0.238120 0
+0.286109 -0.182719 0
+0.273124 -0.194588 0
+0.335889 -0.276326 0
+0.349261 -0.248832 0
+0.267338 -0.153446 0
+0.241794 -0.172267 0
+0.000000 +0.000000 0
+0.213067 -0.113023 0
+0.160702 -0.082958 0
+0.145477 -0.062791 0
+0.192169 -0.085726 0
+0.237793 -0.133740 0
+0.142560 -0.076711 0
+0.119473 -0.045970 0
+0.197349 -0.081182 0
-0.333639 +0.237702 0
+0.000000 +0.000000 0
-0.145477 +0.062791 0
-0.192169 +0.085726 0
-0.213067 +0.113023 0
-0.160702 +0.082958 0
-0.119473 +0.045970 0
-0.197349 +0.081182 0
-0.237793 +0.133740 0
-0.142560 +0.076711 0
-0.335270 +0.346170 0
-0.286109 +0.182719 0
-0.273124 +0.194588 0
-0.325218 +0.252823 0
-0.334225 +0.238120 0
-0.267338 +0.153446 0
-0.241794 +0.172267 0
-0.335889 +0.276326 0
-0.349261 +0.248832 0
-0.140505 +0.251856 0
-0.115020 +0.206175 0
-0.082290 +0.197656 0
-0.140752 +0.252298 0
-0.175157 +0.263820 0
-0.101827 +0.182525 0
-0.045628 +0.169694 0
-0.147084 +0.263649 0
-0.208408 +0.285668 0
+0.000000 +0.000000 0
+0.011650 +0.100663 0
+0.012626 +0.074378 0
-0.010641 +0.093955 0
-0.019594 +0.127202 0
+0.024361 +0.097430 0
+0.020494 +0.056227 0
-0.015079 +0.086054 0
-0.035616 +0.148557 0
+0.000000 +0.000000 0
+0.000000 +0.000000 0
-0.122437 +0.085762 0
-0.163715 +0.116640 0
-0.125157 +0.090637 0
-0.093482 +0.066602 0
-0.114052 +0.078800 0
-0.192388 +0.137068 0
-0.118600 +0.086953 0
-0.069648 +0.049621 0
+0.000000 +0.000000 0
-0.284873 +0.241736 0
-0.286953 +0.255627 0
-0.221129 +0.198399 0
-0.219096 +0.187630 0
-0.303856 +0.252160 0
-0.307381 +0.278415 0
-0.191969 +0.175919 0
-0.188589 +0.159217 0
+0.000000 +0.000000 0
-0.213422 +0.261016 0
-0.190103 +0.248682 0
-0.149303 +0.192745 0
-0.167015 +0.202364 0
-0.236917 +0.283579 0
-0.192488 +0.260322 0
-0.124377 +0.163923 0
-0.151652 +0.178874 0
+0.000000 +0.000000 0
-0.068945 +0.123585 0
-0.048906 +0.091151 0
-0.039368 +0.070568 0
-0.055363 +0.095752 0
-0.081020 +0.145230 0
-0.043588 +0.083964 0
-0.029331 +0.052576 0
-0.054388 +0.091659 0
+0.000000 +0.000000 0
+0.000000 +0.000000 0
+0.000000 +0.000000 0
+0.115455 -0.176884 0
+0.064034 -0.095529 0
+0.142750 -0.231099 0
+0.059771 -0.137211 0
+0.096861 -0.198405 0
+0.028381 -0.070127 0
+0.000000 +0.000000 0
+0.000000 +0.000000 0
+0.000000 +0.000000 0
+0.047271 -0.083334 0
+0.043295 -0.076988 0
+0.051294 -0.089592 0
+0.062879 -0.110502 0
+0.059289 -0.103320 0
+0.066099 -0.117259 0
+0.058790 -0.107589 0
+0.063834 -0.115646 0
+0.053815 -0.099421 0
+0.044679 -0.081487 0
+0.046937 -0.086488 0
+0.042149 -0.076171 0
+0.035651 -0.061684 0
+0.031356 -0.055214 0
+0.043217 -0.073660 0
+0.077295 -0.131215 0
+0.066545 -0.111974 0
+0.082309 -0.143019 0
+0.063708 -0.121534 0
+0.073940 -0.137057 0
+0.053011 -0.102332 0
+0.031539 -0.058755 0
+0.036169 -0.068639 0
+0.029519 -0.053905 0
+0.034268 -0.061425 0
+0.036782 -0.065933 0
+0.031725 -0.056868 0
+0.055057 -0.094001 0
+0.055282 -0.094991 0
+0.054849 -0.093019 0
+0.074934 -0.134320 0
+0.071930 -0.128935 0
+0.077962 -0.139747 0
+0.046375 -0.087816 0
+0.047685 -0.089578 0
+0.045038 -0.086029 0
+0.007653 -0.013717 0
+0.017179 -0.030794 0
+0.001944 -0.003485 0
+0.037760 -0.059300 0
+0.048308 -0.078618 0
+0.021559 -0.032826 0
+0.114587 -0.205399 0
+0.098190 -0.176006 0
+0.128652 -0.230609 0
+0.022231 -0.048236 0
+0.033540 -0.068096 0
+0.010784 -0.025149 0
+0.000000 +0.000000 0
+0.000000 +0.000000 0
+0.000000 +0.000000 0
+0.237039 -0.244746 0
+0.128174 -0.132341 0
+0.308935 -0.318978 0
+0.240853 -0.324180 0
+0.291202 -0.341493 0
+0.189207 -0.293754 0
+0.158278 -0.197950 0
+0.153813 -0.195444 0
+0.162683 -0.200257 0
+0.191895 -0.233489 0
+0.179843 -0.218341 0
+0.203096 -0.247724 0
+0.201896 -0.255348 0
+0.207699 -0.258307 0
+0.196028 -0.252138 0
+0.171281 -0.222429 0
+0.181108 -0.236008 0
+0.160655 -0.207982 0
+0.117881 -0.146588 0
+0.116769 -0.149604 0
+0.129611 -0.156664 0
+0.206596 -0.239503 0
+0.178961 -0.208206 0
+0.226792 -0.265460 0
+0.225110 -0.288184 0
+0.235225 -0.290469 0
+0.209781 -0.277315 0
+0.155394 -0.211852 0
+0.173482 -0.237157 0
+0.138252 -0.186012 0
+0.136826 -0.178428 0
+0.143052 -0.185614 0
+0.130551 -0.171182 0
+0.159647 -0.190880 0
+0.163448 -0.196717 0
+0.155828 -0.185006 0
+0.225181 -0.272435 0
+0.219323 -0.266796 0
+0.231068 -0.278107 0
+0.191589 -0.254767 0
+0.190961 -0.251836 0
+0.192206 -0.257705 0
+0.056021 -0.078154 0
+0.089301 -0.120944 0
+0.026199 -0.037617 0
+0.087031 -0.095676 0
+0.122252 -0.139283 0
+0.045947 -0.048918 0
+0.295658 -0.330552 0
+0.267839 -0.310013 0
+0.317770 -0.342116 0
+0.178361 -0.271246 0
+0.188423 -0.269172 0
+0.161826 -0.264862 0
+0.000000 +0.000000 0
+0.000000 +0.000000 0
+0.000000 +0.000000 0
+0.219769 -0.169239 0
+0.117231 -0.091630 0
+0.294149 -0.220004 0
+0.377401 -0.314174 0
+0.367171 -0.280712 0
+0.365037 -0.336082 0
+0.220724 -0.193374 0
+0.221076 -0.195978 0
+0.220064 -0.190588 0
+0.253719 -0.216388 0
+0.236806 -0.202401 0
+0.269754 -0.229512 0
+0.286700 -0.249133 0
+0.285984 -0.245545 0
+0.287018 -0.252494 0
+0.255841 -0.228803 0
+0.271870 -0.242684 0
+0.238899 -0.214014 0
+0.162870 -0.143291 0
+0.170918 -0.153636 0
+0.169290 -0.145755 0
+0.248370 -0.205039 0
+0.216504 -0.180277 0
+0.278447 -0.229465 0
+0.325952 -0.280794 0
+0.319591 -0.269267 0
+0.321311 -0.284160 0
+0.253965 -0.236031 0
+0.283393 -0.261312 0
+0.221331 -0.205100 0
+0.206750 -0.187428 0
+0.214008 -0.193011 0
+0.199437 -0.181810 0
+0.204025 -0.173504 0
+0.211620 -0.180589 0
+0.196362 -0.166359 0
+0.294591 -0.247219 0
+0.289834 -0.244590 0
+0.299370 -0.249852 0
+0.297406 -0.267142 0
+0.292289 -0.261449 0
+0.302559 -0.272868 0
+0.097550 -0.094905 0
+0.145866 -0.137552 0
+0.048619 -0.048722 0
+0.092758 -0.075462 0
+0.141280 -0.117134 0
+0.045309 -0.036216 0
+0.335869 -0.259702 0
+0.323392 -0.259281 0
+0.338667 -0.251902 0
+0.341384 -0.327201 0
+0.328367 -0.305577 0
+0.343118 -0.340258 0
+0.000000 +0.000000 0
+0.000000 +0.000000 0
+0.000000 +0.000000 0
+0.000000 +0.000000 0
+0.000000 +0.000000 0
+0.000000 +0.000000 0
+0.196318 -0.127204 0
+0.102217 -0.064716 0
+0.274824 -0.185363 0
+0.109717 -0.078758 0
+0.117546 -0.084737 0
+0.101688 -0.072709 0
+0.108625 -0.076801 0
+0.101205 -0.071843 0
+0.115711 -0.081448 0
+0.143594 -0.101374 0
+0.133135 -0.093608 0
+0.153790 -0.109054 0
+0.145316 -0.104461 0
+0.154744 -0.110763 0
+0.135440 -0.097739 0
+0.080640 -0.058387 0
+0.095738 -0.069811 0
+0.072663 -0.052187 0
+0.078908 -0.055284 0
+0.071889 -0.050800 0
+0.092770 -0.064491 0
+0.164550 -0.114144 0
+0.139098 -0.096023 0
+0.183749 -0.129010 0
+0.170272 -0.124401 0
+0.187274 -0.135327 0
+0.144797 -0.106239 0
+0.122256 -0.089076 0
+0.123851 -0.089966 0
+0.120659 -0.088196 0
+0.081371 -0.057973 0
+0.087342 -0.062227 0
+0.075334 -0.053672 0
+0.118600 -0.082523 0
+0.120651 -0.084231 0
+0.116528 -0.080789 0
+0.177936 -0.126772 0
+0.170803 -0.121689 0
+0.185126 -0.131894 0
+0.074497 -0.056607 0
+0.100287 -0.074809 0
+0.040670 -0.031426 0
+0.018172 -0.012946 0
+0.040794 -0.029064 0
+0.004617 -0.003289 0
+0.067958 -0.044885 0
+0.094068 -0.063661 0
+0.036132 -0.023292 0
+0.272096 -0.193856 0
+0.233159 -0.166115 0
+0.305492 -0.217649 0
+0.041695 -0.182289 0
+0.105134 -0.233856 0
-0.043021 -0.103374 0
-0.096554 -0.007076 0
-0.125839 -0.009222 0
-0.052209 -0.003826 0
+0.000000 +0.000000 0
+0.000000 +0.000000 0
+0.000000 +0.000000 0
+0.014634 -0.110825 0
+0.012526 -0.102446 0
+0.016987 -0.119079 0
+0.004587 -0.114774 0
+0.012252 -0.121206 0
-0.003393 -0.107914 0
-0.012695 -0.087729 0
-0.012315 -0.094254 0
-0.012792 -0.081098 0
-0.000538 -0.084801 0
-0.006482 -0.079735 0
+0.005178 -0.089548 0
+0.031896 -0.123866 0
+0.023803 -0.104472 0
+0.036802 -0.139779 0
+0.011551 -0.136033 0
+0.026976 -0.147074 0
-0.007676 -0.117413 0
-0.035655 -0.066910 0
-0.034430 -0.079351 0
-0.029517 -0.059675 0
-0.001955 -0.061210 0
-0.010503 -0.056838 0
+0.006209 -0.070835 0
+0.013068 -0.090257 0
+0.011933 -0.092198 0
+0.014202 -0.088288 0
+0.027417 -0.137802 0
+0.023445 -0.132488 0
+0.031426 -0.143157 0
-0.017777 -0.099339 0
-0.014632 -0.100114 0
-0.020928 -0.098572 0
-0.016803 -0.065168 0
-0.014813 -0.069714 0
-0.018826 -0.060573 0
+0.014793 -0.048781 0
+0.016843 -0.069320 0
+0.008894 -0.025288 0
+0.088611 -0.207303 0
+0.061435 -0.178700 0
+0.115139 -0.231599 0
-0.073615 -0.067462 0
-0.047129 -0.085612 0
-0.103486 -0.041990 0
-0.024681 -0.016087 0
-0.025620 -0.033931 0
-0.015979 -0.004799 0
+0.237039 -0.244746 0
+0.308935 -0.318978 0
+0.128174 -0.132341 0
-0.096554 -0.007076 0
-0.052209 -0.003826 0
-0.125839 -0.009222 0
+0.157740 -0.258584 0
+0.149181 -0.255571 0
+0.166410 -0.261333 0
+0.146678 -0.236803 0
+0.161337 -0.250785 0
+0.131212 -0.221905 0
+0.098312 -0.202345 0
+0.106596 -0.204368 0
+0.090204 -0.200105 0
+0.112989 -0.226701 0
+0.097973 -0.212575 0
+0.127261 -0.239954 0
+0.193298 -0.290516 0
+0.172643 -0.280036 0
+0.206016 -0.292610 0
+0.173101 -0.241957 0
+0.196832 -0.267656 0
+0.138938 -0.211139 0
+0.046575 -0.151813 0
+0.068739 -0.161125 0
+0.039122 -0.155294 0
+0.089649 -0.216670 0
+0.064030 -0.191451 0
+0.118149 -0.241212 0
+0.144072 -0.258250 0
+0.142476 -0.255389 0
+0.145670 -0.261116 0
+0.191874 -0.274876 0
+0.183571 -0.269416 0
+0.200232 -0.280367 0
+0.108576 -0.194623 0
+0.111853 -0.200498 0
+0.105277 -0.188710 0
+0.063992 -0.183766 0
+0.073138 -0.190737 0
+0.054775 -0.176736 0
+0.152384 -0.273149 0
+0.151668 -0.271866 0
+0.148313 -0.265852 0
+0.288220 -0.331097 0
+0.251141 -0.311236 0
+0.315880 -0.342254 0
+0.054697 -0.098046 0
+0.079453 -0.142420 0
+0.028023 -0.050232 0
-0.055355 -0.086316 0
-0.006136 -0.127938 0
-0.098847 -0.046781 0
+0.293529 -0.163833 0
+0.331765 -0.217247 0
+0.224286 -0.083785 0
+0.096554 +0.007076 0
+0.125839 +0.009222 0
+0.052209 +0.003826 0
+0.330856 -0.245897 0
+0.328308 -0.249468 0
+0.332831 -0.242112 0
+0.312010 -0.212116 0
+0.323600 -0.225566 0
+0.299488 -0.197807 0
+0.280689 -0.188979 0
+0.283673 -0.185927 0
+0.277163 -0.191868 0
+0.301058 -0.225489 0
+0.287529 -0.210450 0
+0.313629 -0.239624 0
+0.357764 -0.278463 0
+0.350520 -0.282020 0
+0.356728 -0.266546 0
+0.314115 -0.200220 0
+0.333779 -0.225409 0
+0.290725 -0.174838 0
+0.234176 -0.138065 0
+0.246937 -0.140065 0
+0.231791 -0.149175 0
+0.287460 -0.233577 0
+0.261354 -0.202167 0
+0.313353 -0.259116 0
+0.330714 -0.264701 0
+0.328040 -0.258829 0
+0.333395 -0.270608 0
+0.342108 -0.243737 0
+0.338319 -0.241037 0
+0.345905 -0.246441 0
+0.276859 -0.168166 0
+0.281534 -0.175465 0
+0.272138 -0.160806 0
+0.257821 -0.183686 0
+0.265603 -0.189230 0
+0.249988 -0.178105 0
+0.348822 -0.326656 0
+0.345065 -0.304353 0
+0.345008 -0.340120 0
+0.361846 -0.257799 0
+0.360146 -0.256588 0
+0.352180 -0.250912 0
+0.204133 -0.067299 0
+0.236718 -0.110140 0
+0.170354 -0.027052 0
+0.129883 -0.092536 0
+0.188666 -0.134416 0
+0.066543 -0.047409 0
+0.000000 +0.000000 0
+0.000000 +0.000000 0
+0.000000 +0.000000 0
+0.096554 +0.007076 0
+0.052209 +0.003826 0
+0.125839 +0.009222 0
+0.187750 -0.098138 0
+0.200638 -0.105620 0
+0.174424 -0.090582 0
+0.153842 -0.073487 0
+0.157470 -0.078388 0
+0.149835 -0.068279 0
+0.169682 -0.074363 0
+0.157775 -0.068598 0
+0.181155 -0.080075 0
+0.203608 -0.100189 0
+0.198122 -0.093146 0
+0.208591 -0.106817 0
+0.196362 -0.111813 0
+0.220887 -0.126288 0
+0.168306 -0.093882 0
+0.112403 -0.052829 0
+0.122730 -0.062296 0
+0.111912 -0.047867 0
+0.151946 -0.053162 0
+0.133535 -0.047726 0
+0.173385 -0.064121 0
+0.236016 -0.119583 0
+0.219019 -0.100800 0
+0.242606 -0.131272 0
+0.225454 -0.123289 0
+0.219288 -0.118136 0
+0.231661 -0.128483 0
+0.151907 -0.080082 0
+0.156402 -0.081611 0
+0.147364 -0.078530 0
+0.132442 -0.054230 0
+0.138938 -0.058446 0
+0.125885 -0.049967 0
+0.195090 -0.083739 0
+0.193764 -0.084842 0
+0.196436 -0.082642 0
+0.298073 -0.191952 0
+0.269913 -0.163421 0
+0.319005 -0.216659 0
+0.075396 -0.044340 0
+0.110766 -0.062437 0
+0.038022 -0.023153 0
+0.050505 -0.010577 0
+0.083593 -0.025927 0
+0.022540 -0.001976 0
+0.185873 -0.048445 0
+0.195725 -0.067814 0
+0.165715 -0.022262 0
-0.293529 +0.163833 0
-0.224286 +0.083785 0
-0.331765 +0.217247 0
-0.196318 +0.127204 0
-0.274824 +0.185363 0
-0.102217 +0.064716 0
+0.000000 +0.000000 0
+0.000000 +0.000000 0
+0.000000 +0.000000 0
-0.169682 +0.074363 0
-0.157775 +0.068598 0
-0.181155 +0.080075 0
-0.203608 +0.100189 0
-0.198122 +0.093146 0
-0.208591 +0.106817 0
-0.187750 +0.098138 0
-0.200638 +0.105620 0
-0.174424 +0.090582 0
-0.153842 +0.073487 0
-0.157470 +0.078388 0
-0.149835 +0.068279 0
-0.151946 +0.053162 0
-0.133535 +0.047726 0
-0.173385 +0.064121 0
-0.236016 +0.119583 0
-0.219019 +0.100800 0
-0.242606 +0.131272 0
-0.196362 +0.111813 0
-0.220887 +0.126288 0
-0.168306 +0.093882 0
-0.112403 +0.052829 0
-0.122730 +0.062296 0
-0.111912 +0.047867 0
-0.132442 +0.054230 0
-0.138938 +0.058446 0
-0.125885 +0.049967 0
-0.195090 +0.083739 0
-0.193764 +0.084842 0
-0.196436 +0.082642 0
-0.225454 +0.123289 0
-0.219288 +0.118136 0
-0.231661 +0.128483 0
-0.151907 +0.080082 0
-0.156402 +0.081611 0
-0.147364 +0.078530 0
-0.050505 +0.010577 0
-0.083593 +0.025927 0
-0.022540 +0.001976 0
-0.185873 +0.048445 0
-0.195725 +0.067814 0
-0.165715 +0.022262 0
-0.298073 +0.191952 0
-0.269913 +0.163421 0
-0.319005 +0.216659 0
-0.075396 +0.044340 0
-0.110766 +0.062437 0
-0.038022 +0.023153 0
-0.237039 +0.244746 0
-0.128174 +0.132341 0
-0.308935 +0.318978 0
-0.377401 +0.314174 0
-0.365037 +0.336082 0
-0.367171 +0.280712 0
-0.280689 +0.188979 0
-0.283673 +0.185927 0
-0.277163 +0.191868 0
-0.301058 +0.225489 0
-0.287529 +0.210450 0
-0.313629 +0.239624 0
-0.330856 +0.245897 0
-0.328308 +0.249468 0
-0.332831 +0.242112 0
-0.312010 +0.212116 0
-0.323600 +0.225566 0
-0.299488 +0.197807 0
-0.234176 +0.138065 0
-0.246937 +0.140065 0
-0.231791 +0.149175 0
-0.287460 +0.233577 0
-0.261354 +0.202167 0
-0.313353 +0.259116 0
-0.357764 +0.278463 0
-0.350520 +0.282020 0
-0.356728 +0.266546 0
-0.314115 +0.200220 0
-0.333779 +0.225409 0
-0.290725 +0.174838 0
-0.276859 +0.168166 0
-0.281534 +0.175465 0
-0.272138 +0.160806 0
-0.257821 +0.183686 0
-0.265603 +0.189230 0
-0.249988 +0.178105 0
-0.330714 +0.264701 0
-0.328040 +0.258829 0
-0.333395 +0.270608 0
-0.342108 +0.243737 0
-0.338319 +0.241037 0
-0.345905 +0.246441 0
-0.204133 +0.067299 0
-0.236718 +0.110140 0
-0.170354 +0.027052 0
-0.129883 +0.092536 0
-0.188666 +0.134416 0
-0.066543 +0.047409 0
-0.348822 +0.326656 0
-0.345065 +0.304353 0
-0.345008 +0.340120 0
-0.361846 +0.257799 0
-0.360146 +0.256588 0
-0.352180 +0.250912 0
-0.041695 +0.182289 0
+0.043021 +0.103374 0
-0.105134 +0.233856 0
-0.240853 +0.324180 0
-0.189207 +0.293754 0
-0.291202 +0.341493 0
-0.098312 +0.202345 0
-0.106596 +0.204368 0
-0.090204 +0.200105 0
-0.112989 +0.226701 0
-0.097973 +0.212575 0
-0.127261 +0.239954 0
-0.157740 +0.258584 0
-0.149181 +0.255571 0
-0.166410 +0.261333 0
-0.146678 +0.236803 0
-0.161337 +0.250785 0
-0.131212 +0.221905 0
-0.046575 +0.151813 0
-0.068739 +0.161125 0
-0.039122 +0.155294 0
-0.089649 +0.216670 0
-0.064030 +0.191451 0
-0.118149 +0.241212 0
-0.193298 +0.290516 0
-0.172643 +0.280036 0
-0.206016 +0.292610 0
-0.173101 +0.241957 0
-0.196832 +0.267656 0
-0.138938 +0.211139 0
-0.108576 +0.194623 0
-0.111853 +0.200498 0
-0.105277 +0.188710 0
-0.063992 +0.183766 0
-0.073138 +0.190737 0
-0.054775 +0.176736 0
-0.144072 +0.258250 0
-0.142476 +0.255389 0
-0.145670 +0.261116 0
-0.191874 +0.274876 0
-0.183571 +0.269416 0
-0.200232 +0.280367 0
-0.054697 +0.098046 0
-0.079453 +0.142420 0
-0.028023 +0.050232 0
+0.055355 +0.086316 0
+0.006136 +0.127938 0
+0.098847 +0.046781 0
-0.152384 +0.273149 0
-0.151668 +0.271866 0
-0.148313 +0.265852 0
-0.288220 +0.331097 0
-0.251141 +0.311236 0
-0.315880 +0.342254 0
+0.000000 +0.000000 0
+0.000000 +0.000000 0
+0.000000 +0.000000 0
-0.059771 +0.137211 0
-0.028381 +0.070127 0
-0.096861 +0.198405 0
+0.012695 +0.087729 0
+0.012315 +0.094254 0
+0.012792 +0.081098 0
+0.000538 +0.084801 0
+0.006482 +0.079735 0
-0.005178 +0.089548 0
-0.014634 +0.110825 0
-0.012526 +0.102446 0
-0.016987 +0.119079 0
-0.004587 +0.114774 0
-0.012252 +0.121206 0
+0.003393 +0.107914 0
+0.035655 +0.066910 0
+0.034430 +0.079351 0
+0.029517 +0.059675 0
+0.001955 +0.061210 0
+0.010503 +0.056838 0
-0.006209 +0.070835 0
-0.031896 +0.123866 0
-0.023803 +0.104472 0
-0.036802 +0.139779 0
-0.011551 +0.136033 0
-0.026976 +0.147074 0
+0.007676 +0.117413 0
+0.017777 +0.099339 0
+0.014632 +0.100114 0
+0.020928 +0.098572 0
+0.016803 +0.065168 0
+0.014813 +0.069714 0
+0.018826 +0.060573 0
-0.013068 +0.090257 0
-0.011933 +0.092198 0
-0.014202 +0.088288 0
-0.027417 +0.137802 0
-0.023445 +0.132488 0
-0.031426 +0.143157 0
+0.073615 +0.067462 0
+0.047129 +0.085612 0
+0.103486 +0.041990 0
+0.024681 +0.016087 0
+0.025620 +0.033931 0
+0.015979 +0.004799 0
-0.014793 +0.048781 0
-0.016843 +0.069320 0
-0.008894 +0.025288 0
-0.088611 +0.207303 0
-0.061435 +0.178700 0
-0.115139 +0.231599 0
-0.219769 +0.169239 0
-0.294149 +0.220004 0
-0.117231 +0.091630 0
+0.000000 +0.000000 0
+0.000000 +0.000000 0
+0.000000 +0.000000 0
+0.000000 +0.000000 0
+0.000000 +0.000000 0
+0.000000 +0.000000 0
-0.143594 +0.101374 0
-0.133135 +0.093608 0
-0.153790 +0.109054 0
-0.145316 +0.104461 0
-0.154744 +0.110763 0
-0.135440 +0.097739 0
-0.109717 +0.078758 0
-0.117546 +0.084737 0
-0.101688 +0.072709 0
-0.108625 +0.076801 0
-0.101205 +0.071843 0
-0.115711 +0.081448 0
-0.164550 +0.114144 0
-0.139098 +0.096023 0
-0.183749 +0.129010 0
-0.170272 +0.124401 0
-0.187274 +0.135327 0
-0.144797 +0.106239 0
-0.080640 +0.058387 0
-0.095738 +0.069811 0
-0.072663 +0.052187 0
-0.078908 +0.055284 0
-0.071889 +0.050800 0
-0.092770 +0.064491 0
-0.118600 +0.082523 0
-0.120651 +0.084231 0
-0.116528 +0.080789 0
-0.177936 +0.126772 0
-0.170803 +0.121689 0
-0.185126 +0.131894 0
-0.122256 +0.089076 0
-0.123851 +0.089966 0
-0.120659 +0.088196 0
-0.081371 +0.057973 0
-0.087342 +0.062227 0
-0.075334 +0.053672 0
-0.067958 +0.044885 0
-0.094068 +0.063661 0
-0.036132 +0.023292 0
-0.272096 +0.193856 0
-0.233159 +0.166115 0
-0.305492 +0.217649 0
-0.074497 +0.056607 0
-0.100287 +0.074809 0
-0.040670 +0.031426 0
-0.018172 +0.012946 0
-0.040794 +0.029064 0
-0.004617 +0.003289 0
-0.237039 +0.244746 0
-0.308935 +0.318978 0
-0.128174 +0.132341 0
+0.000000 +0.000000 0
+0.000000 +0.000000 0
+0.000000 +0.000000 0
-0.286700 +0.249133 0
-0.285984 +0.245545 0
-0.287018 +0.252494 0
-0.255841 +0.228803 0
-0.271870 +0.242684 0
-0.238899 +0.214014 0
-0.220724 +0.193374 0
-0.221076 +0.195978 0
-0.220064 +0.190588 0
-0.253719 +0.216388 0
-0.236806 +0.202401 0
-0.269754 +0.229512 0
-0.325952 +0.280794 0
-0.319591 +0.269267 0
-0.321311 +0.284160 0
-0.253965 +0.236031 0
-0.283393 +0.261312 0
-0.221331 +0.205100 0
-0.162870 +0.143291 0
-0.170918 +0.153636 0
-0.169290 +0.145755 0
-0.248370 +0.205039 0