# vtk DataFile Version 2.0
this shit
ASCII
DATASET POLYDATA
POINTS 400 double
-3.141593 -3.141593 0.000000
-2.810899 -3.141593 0.000000
-2.480205 -3.141593 0.000000
-2.149511 -3.141593 0.000000
-1.818817 -3.141593 0.000000
-1.488123 -3.141593 0.000000
-1.157429 -3.141593 0.000000
-0.826735 -3.141593 0.000000
-0.496041 -3.141593 0.000000
-0.165347 -3.141593 0.000000
0.165347 -3.141593 0.000000
0.496041 -3.141593 0.000000
0.826735 -3.141593 0.000000
1.157429 -3.141593 0.000000
1.488123 -3.141593 0.000000
1.818817 -3.141593 0.000000
2.149511 -3.141593 0.000000
2.480205 -3.141593 0.000000
2.810899 -3.141593 0.000000
3.141593 -3.141593 0.000000
-3.141593 -2.810899 0.000000
-2.810899 -2.810899 0.000000
-2.480205 -2.810899 0.000000
-2.149511 -2.810899 0.000000
-1.818817 -2.810899 0.000000
-1.488123 -2.810899 0.000000
-1.157429 -2.810899 0.000000
-0.826735 -2.810899 0.000000
-0.496041 -2.810899 0.000000
-0.165347 -2.810899 0.000000
0.165347 -2.810899 0.000000
0.496041 -2.810899 0.000000
0.826735 -2.810899 0.000000
1.157429 -2.810899 0.000000
1.488123 -2.810899 0.000000
1.818817 -2.810899 0.000000
2.149511 -2.810899 0.000000
2.480205 -2.810899 0.000000
2.810899 -2.810899 0.000000
3.141593 -2.810899 0.000000
-3.141593 -2.480205 0.000000
-2.810899 -2.480205 0.000000
-2.480205 -2.480205 0.000000
-2.149511 -2.480205 0.000000
-1.818817 -2.480205 0.000000
-1.488123 -2.480205 0.000000
-1.157429 -2.480205 0.000000
-0.826735 -2.480205 0.000000
-0.496041 -2.480205 0.000000
-0.165347 -2.480205 0.000000
0.165347 -2.480205 0.000000
0.496041 -2.480205 0.000000
0.826735 -2.480205 0.000000
1.157429 -2.480205 0.000000
1.488123 -2.480205 0.000000
1.818817 -2.480205 0.000000
2.149511 -2.480205 0.000000
2.480205 -2.480205 0.000000
2.810899 -2.480205 0.000000
3.141593 -2.480205 0.000000
-3.141593 -2.149511 0.000000
-2.810899 -2.149511 0.000000
-2.480205 -2.149511 0.000000
-2.149511 -2.149511 0.000000
-1.818817 -2.149511 0.000000
-1.488123 -2.149511 0.000000
-1.157429 -2.149511 0.000000
-0.826735 -2.149511 0.000000
-0.496041 -2.149511 0.000000
-0.165347 -2.149511 0.000000
0.165347 -2.149511 0.000000
0.496041 -2.149511 0.000000
0.826735 -2.149511 0.000000
1.157429 -2.149511 0.000000
1.488123 -2.149511 0.000000
1.818817 -2.149511 0.000000
2.149511 -2.149511 0.000000
2.480205 -2.149511 0.000000
2.810899 -2.149511 0.000000
3.141593 -2.149511 0.000000
-3.141593 -1.818817 0.000000
-2.810899 -1.818817 0.000000
-2.480205 -1.818817 0.000000
-2.149511 -1.818817 0.000000
-1.818817 -1.818817 0.000000
-1.488123 -1.818817 0.000000
-1.157429 -1.818817 0.000000
-0.826735 -1.818817 0.000000
-0.496041 -1.818817 0.000000
-0.165347 -1.818817 0.000000
0.165347 -1.818817 0.000000
0.496041 -1.818817 0.000000
0.826735 -1.818817 0.000000
1.157429 -1.818817 0.000000
1.488123 -1.818817 0.000000
1.818817 -1.818817 0.000000
2.149511 -1.818817 0.000000
2.480205 -1.818817 0.000000
2.810899 -1.818817 0.000000
3.141593 -1.818817 0.000000
-3.141593 -1.488123 0.000000
-2.810899 -1.488123 0.000000
-2.480205 -1.488123 0.000000
-2.149511 -1.488123 0.000000
-1.818817 -1.488123 0.000000
-1.488123 -1.488123 0.000000
-1.157429 -1.488123 0.000000
-0.826735 -1.488123 0.000000
-0.496041 -1.488123 0.000000
-0.165347 -1.488123 0.000000
0.165347 -1.488123 0.000000
0.496041 -1.488123 0.000000
0.826735 -1.488123 0.000000
1.157429 -1.488123 0.000000
1.488123 -1.488123 0.000000
1.818817 -1.488123 0.000000
2.149511 -1.488123 0.000000
2.480205 -1.488123 0.000000
2.810899 -1.488123 0.000000
3.141593 -1.488123 0.000000
-3.141593 -1.157429 0.000000
-2.810899 -1.157429 0.000000
-2.480205 -1.157429 0.000000
-2.149511 -1.157429 0.000000
-1.818817 -1.157429 0.000000
-1.488123 -1.157429 0.000000
-1.157429 -1.157429 0.000000
-0.826735 -1.157429 0.000000
-0.496041 -1.157429 0.000000
-0.165347 -1.157429 0.000000
0.165347 -1.157429 0.000000
0.496041 -1.157429 0.000000
0.826735 -1.157429 0.000000
1.157429 -1.157429 0.000000
1.488123 -1.157429 0.000000
1.818817 -1.157429 0.000000
2.149511 -1.157429 0.000000
2.480205 -1.157429 0.000000
2.810899 -1.157429 0.000000
3.141593 -1.157429 0.000000
-3.141593 -0.826735 0.000000
-2.810899 -0.826735 0.000000
-2.480205 -0.826735 0.000000
-2.149511 -0.826735 0.000000
-1.818817 -0.826735 0.000000
-1.488123 -0.826735 0.000000
-1.157429 -0.826735 0.000000
-0.826735 -0.826735 0.000000
-0.496041 -0.826735 0.000000
-0.165347 -0.826735 0.000000
0.165347 -0.826735 0.000000
0.496041 -0.826735 0.000000
0.826735 -0.826735 0.000000
1.157429 -0.826735 0.000000
1.488123 -0.826735 0.000000
1.818817 -0.826735 0.000000
2.149511 -0.826735 0.000000
2.480205 -0.826735 0.000000
2.810899 -0.826735 0.000000
3.141593 -0.826735 0.000000
-3.141593 -0.496041 0.000000
-2.810899 -0.496041 0.000000
-2.480205 -0.496041 0.000000
-2.149511 -0.496041 0.000000
-1.818817 -0.496041 0.000000
-1.488123 -0.496041 0.000000
-1.157429 -0.496041 0.000000
-0.826735 -0.496041 0.000000
-0.496041 -0.496041 0.000000
-0.165347 -0.496041 0.000000
0.165347 -0.496041 0.000000
0.496041 -0.496041 0.000000
0.826735 -0.496041 0.000000
1.157429 -0.496041 0.000000
1.488123 -0.496041 0.000000
1.818817 -0.496041 0.000000
2.149511 -0.496041 0.000000
2.480205 -0.496041 0.000000
2.810899 -0.496041 0.000000
3.141593 -0.496041 0.000000
-3.141593 -0.165347 0.000000
-2.810899 -0.165347 0.000000
-2.480205 -0.165347 0.000000
-2.149511 -0.165347 0.000000
-1.818817 -0.165347 0.000000
-1.488123 -0.165347 0.000000
-1.157429 -0.165347 0.000000
-0.826735 -0.165347 0.000000
-0.496041 -0.165347 0.000000
-0.165347 -0.165347 0.000000
0.165347 -0.165347 0.000000
0.496041 -0.165347 0.000000
0.826735 -0.165347 0.000000
1.157429 -0.165347 0.000000
1.488123 -0.165347 0.000000
1.818817 -0.165347 0.000000
2.149511 -0.165347 0.000000
2.480205 -0.165347 0.000000
2.810899 -0.165347 0.000000
3.141593 -0.165347 0.000000
-3.141593 0.165347 0.000000
-2.810899 0.165347 0.000000
-2.480205 0.165347 0.000000
-2.149511 0.165347 0.000000
-1.818817 0.165347 0.000000
-1.488123 0.165347 0.000000
-1.157429 0.165347 0.000000
-0.826735 0.165347 0.000000
-0.496041 0.165347 0.000000
-0.165347 0.165347 0.000000
0.165347 0.165347 0.000000
0.496041 0.165347 0.000000
0.826735 0.165347 0.000000
1.157429 0.165347 0.000000
1.488123 0.165347 0.000000
1.818817 0.165347 0.000000
2.149511 0.165347 0.000000
2.480205 0.165347 0.000000
2.810899 0.165347 0.000000
3.141593 0.165347 0.000000
-3.141593 0.496041 0.000000
-2.810899 0.496041 0.000000
-2.480205 0.496041 0.000000
-2.149511 0.496041 0.000000
-1.818817 0.496041 0.000000
-1.488123 0.496041 0.000000
-1.157429 0.496041 0.000000
-0.826735 0.496041 0.000000
-0.496041 0.496041 0.000000
-0.165347 0.496041 0.000000
0.165347 0.496041 0.000000
0.496041 0.496041 0.000000
0.826735 0.496041 0.000000
1.157429 0.496041 0.000000
1.488123 0.496041 0.000000
1.818817 0.496041 0.000000
2.149511 0.496041 0.000000
2.480205 0.496041 0.000000
2.810899 0.496041 0.000000
3.141593 0.496041 0.000000
-3.141593 0.826735 0.000000
-2.810899 0.826735 0.000000
-2.480205 0.826735 0.000000
-2.149511 0.826735 0.000000
-1.818817 0.826735 0.000000
-1.488123 0.826735 0.000000
-1.157429 0.826735 0.000000
-0.826735 0.826735 0.000000
-0.496041 0.826735 0.000000
-0.165347 0.826735 0.000000
0.165347 0.826735 0.000000
0.496041 0.826735 0.000000
0.826735 0.826735 0.000000
1.157429 0.826735 0.000000
1.488123 0.826735 0.000000
1.818817 0.826735 0.000000
2.149511 0.826735 0.000000
2.480205 0.826735 0.000000
2.810899 0.826735 0.000000
3.141593 0.826735 0.000000
-3.141593 1.157429 0.000000
-2.810899 1.157429 0.000000
-2.480205 1.157429 0.000000
-2.149511 1.157429 0.000000
-1.818817 1.157429 0.000000
-1.488123 1.157429 0.000000
-1.157429 1.157429 0.000000
-0.826735 1.157429 0.000000
-0.496041 1.157429 0.000000
-0.165347 1.157429 0.000000
0.165347 1.157429 0.000000
0.496041 1.157429 0.000000
0.826735 1.157429 0.000000
1.157429 1.157429 0.000000
1.488123 1.157429 0.000000
1.818817 1.157429 0.000000
2.149511 1.157429 0.000000
2.480205 1.157429 0.000000
2.810899 1.157429 0.000000
3.141593 1.157429 0.000000
-3.141593 1.488123 0.000000
-2.810899 1.488123 0.000000
-2.480205 1.488123 0.000000
-2.149511 1.488123 0.000000
-1.818817 1.488123 0.000000
-1.488123 1.488123 0.000000
-1.157429 1.488123 0.000000
-0.826735 1.488123 0.000000
-0.496041 1.488123 0.000000
-0.165347 1.488123 0.000000
0.165347 1.488123 0.000000
0.496041 1.488123 0.000000
0.826735 1.488123 0.000000
1.157429 1.488123 0.000000
1.488123 1.488123 0.000000
1.818817 1.488123 0.000000
2.149511 1.488123 0.000000
2.480205 1.488123 0.000000
2.810899 1.488123 0.000000
3.141593 1.488123 0.000000
-3.141593 1.818817 0.000000
-2.810899 1.818817 0.000000
-2.480205 1.818817 0.000000
-2.149511 1.818817 0.000000
-1.818817 1.818817 0.000000
-1.488123 1.818817 0.000000
-1.157429 1.818817 0.000000
-0.826735 1.818817 0.000000
-0.496041 1.818817 0.000000
-0.165347 1.818817 0.000000
0.165347 1.818817 0.000000
0.496041 1.818817 0.000000
0.826735 1.818817 0.000000
1.157429 1.818817 0.000000
1.488123 1.818817 0.000000
1.818817 1.818817 0.000000
2.149511 1.818817 0.000000
2.480205 1.818817 0.000000
2.810899 1.818817 0.000000
3.141593 1.818817 0.000000
-3.141593 2.149511 0.000000
-2.810899 2.149511 0.000000
-2.480205 2.149511 0.000000
-2.149511 2.149511 0.000000
-1.818817 2.149511 0.000000
-1.488123 2.149511 0.000000
-1.157429 2.149511 0.000000
-0.826735 2.149511 0.000000
-0.496041 2.149511 0.000000
-0.165347 2.149511 0.000000
0.165347 2.149511 0.000000
0.496041 2.149511 0.000000
0.826735 2.149511 0.000000
1.157429 2.149511 0.000000
1.488123 2.149511 0.000000
1.818817 2.149511 0.000000
2.149511 2.149511 0.000000
2.480205 2.149511 0.000000
2.810899 2.149511 0.000000
3.141593 2.149511 0.000000
-3.141593 2.480205 0.000000
-2.810899 2.480205 0.000000
-2.480205 2.480205 0.000000
-2.149511 2.480205 0.000000
-1.818817 2.480205 0.000000
-1.488123 2.480205 0.000000
-1.157429 2.480205 0.000000
-0.826735 2.480205 0.000000
-0.496041 2.480205 0.000000
-0.165347 2.480205 0.000000
0.165347 2.480205 0.000000
0.496041 2.480205 0.000000
0.826735 2.480205 0.000000
[...]
POINT_DATA 400
SCALARS solution_0 double
LOOKUP_TABLE defaul
-5.700337
-4.750159
-3.542808
-2.405542
-1.467350
-0.851889
-0.671126
-1.025435
-6.979563
-10.701968
-10.728880
-7.093706
-5.694878
-6.585867
-7.229615
-7.532235
-7.491758
-7.144943
-6.557538
-5.740552
-5.835064
-4.893770
-3.595774
-2.368976
-1.355869
-0.706599
-0.516832
-1.244680
-7.332589
-10.594068
-10.164292
-6.033451
-4.120293
-5.174548
-6.130057
-6.768655
-7.021771
-6.908040
-6.490562
-5.740572
-3.585480
-2.825795
-1.150075
0.370345
1.631981
2.110979
1.865228
-1.414740
-7.004787
-9.818813
-8.968169
-4.434261
0.411742
-0.158930
-1.454294
-2.624135
-3.410025
-3.754918
-3.716430
-3.146800
-2.309953
-2.242420
-0.068502
1.660249
2.366733
2.471840
2.213000
-1.009447
-6.029824
-8.449151
-7.253161
-2.481220
1.962207
2.713271
2.695431
2.042556
1.032092
0.097990
-0.548536
-0.456995
-2.687952
-2.590402
-0.019944
1.550818
2.105524
2.257623
2.025150
-0.206066
-4.534698
-6.627665
-5.187644
-0.363062
2.702301
3.018339
3.034975
2.845260
2.459986
1.843994
1.060888
0.830165
-3.296449
-2.999971
0.259410
1.641901
1.878512
2.006003
1.859747
0.549929
-2.786529
-4.595766
-3.050774
1.510138
3.029362
3.167872
3.179762
3.080014
2.855480
2.415583
1.663733
1.438839
-3.790082
-3.296889
0.510711
2.026636
1.825463
1.788855
1.719653
1.004133
-1.203683
-2.697236
-1.268772
1.999682
2.930181
3.118381
3.167148
3.120012
2.960400
2.596903
1.784640
1.543241
-4.021837
-3.334535
0.538539
2.330281
2.016670
1.766776
1.627677
1.241122
-0.085451
-1.232446
-0.180510
1.841357
2.618278
2.881052
2.986504
2.980386
2.832016
2.402617
1.146705
0.541717
-3.898627
-3.042643
0.569580
2.172453
2.206263
2.018698
1.777816
1.432598
0.607935
-0.282373
0.261728
1.486312
2.125414
2.439365
2.601427
2.625571
2.449603
1.794423
-0.127121
-0.999034
-3.370088
-2.415561
0.573739
1.666600
1.918882
1.951816
1.833512
1.518049
0.887708
0.098821
0.194912
0.960285
1.513671
1.837657
1.997446
1.996869
1.773055
0.959659
-1.426100
-2.388176
-2.388176
-1.426100
0.959659
1.773055
1.996869
1.997446
1.837657
1.513671
0.960285
0.194912
0.098821
0.887708
1.518049
1.833512
1.951816
1.918882
1.666600
0.573739
-2.415561
-3.370088
-0.999034
-0.127121
1.794423
2.449603
2.625571
2.601427
2.439365
2.125414
1.486312
0.261728
-0.282373
0.607935
1.432598
1.777816
2.018698
2.206263
2.172453
0.569580
-3.042643
-3.898627
0.541717
1.146705
2.402617
2.832016
2.980386
2.986504
2.881052
2.618278
1.841357
-0.180510
-1.232446
-0.085451
1.241122
1.627677
1.766776
2.016670
2.330281
0.538539
-3.334535
-4.021837
1.543241
1.784640
2.596903
2.960400
3.120012
3.167148
3.118381
2.930181
1.999682
-1.268772
-2.697236
-1.203683
1.004133
1.719653
1.788855
1.825463
2.026636
0.510711
-3.296889
-3.790082
1.438839
1.663733
2.415583
2.855480
3.080014
3.179762
3.167872
3.029362
1.510138
-3.050774
-4.595766
-2.786529
0.549929
1.859747
2.006003
1.878512
1.641901
0.259410
-2.999971
-3.296449
0.830165
1.060888
1.843994
2.459986
2.845260
3.034975
3.018339
2.702301
-0.363062
-5.187644
-6.627665
-4.534698
-0.206066
2.025150
2.257623
2.105524
1.550818
-0.019944
-2.590402
-2.687952
-0.456995
-0.548536
0.097990
1.032092
2.042556
2.695431
2.713271
1.962207
-2.481220
-7.253161
-8.449151
-6.029824
-1.009447
2.213000
2.471840
2.366733
1.660249
-0.068502
-2.242420
-2.309953
-3.146800
-3.716430
-3.754918
-3.410025
-2.624135
-1.454294
-0.158930
0.411742
-4.434261
-8.968169
-9.818813
-7.004787
-1.414740
1.865228
2.110979
1.631981
0.370345
-1.150075
-2.825795
-3.585480
-5.740572
-6.490562
-6.908040
-7.021771
-6.768655
-6.130057
-5.174548
-4.120293
-6.033451
-10.164292
-10.594068
-7.332589
-1.244680
-0.516832
-0.706599
-1.355869
-2.368976
-3.595774
-4.893770
-5.835064
-5.740552
-6.557538
-7.144943
-7.491758
-7.532235
-7.229615
-6.585867
-5.694878
-7.093706
-10.728880
-10.701968
-6.979563
-1.025435
-0.671126
-0.851889
-1.467350
-2.405542
-3.542808
-4.750159
-5.700337
SCALARS solution_1 double
LOOKUP_TABLE defaul
0.532459
0.827143
2.447659
3.205262
3.197179
3.019252
2.622989
-0.566843
-1.904636
-2.770606
-3.248405
-4.428708
-0.613325
2.077217
2.391996
2.468257
2.489503
1.870480
0.481075
0.689713
0.172564
0.157566
1.684504
2.791344
2.968665
2.979670
2.866288
-0.752413
-1.384552
-1.870036
-2.313434
-3.080310
0.380124
2.114525
2.366764
2.486163
2.654411
2.636086
1.471364
1.465561
-0.321159
-0.231967
1.226692
2.428022
2.712206
3.197886
3.556133
1.596668
1.031882
0.701268
0.459347
0.709166
1.803048
2.512824
2.736586
2.941411
3.197609
3.449043
2.577330
2.133487
0.371425
1.141003
2.547872
3.712153
4.667419
5.650662
4.720234
2.490459
1.964477
1.903330
2.020374
2.532771
5.073020
5.677898
5.268739
4.977307
4.857290
4.586831
3.575471
3.215095
1.509388
1.917751
3.320495
4.870607
5.770911
6.648148
5.631616
2.949022
2.244453
2.367220
2.562547
2.931287
5.747814
7.575055
7.791501
7.747239
7.225350
6.021012
4.513495
3.878143
2.247104
2.249600
2.650461
5.353875
6.009785
6.647831
6.471924
3.971496
2.818307
2.892087
2.811371
2.989912
5.993200
7.771564
8.394572
8.351127
7.746419
6.381936
4.565843
3.671089
2.407137
2.573335
2.432415
5.142410
6.169159
6.439263
6.380287
5.256814
3.851205
3.841645
3.472947
4.128014
6.474535
7.776808
8.309374
8.266511
7.621869
5.975888
3.847021
2.832687
2.311388
2.739268
2.930318
5.052855
6.357846
6.227499
5.862244
5.220019
4.387026
4.388426
4.321614
5.200717
6.698036
7.658003
8.037706
7.908110
7.280975
5.537530
3.424119
2.573420
2.115406
2.566222
3.391301
5.451940
5.928448
5.463639
4.865607
4.234067
3.476790
3.325760
3.997979
4.940892
6.083199
6.750351
6.914302
6.775029
6.279236
4.870919
3.238840
2.635391
1.752361
1.972909
3.238867
5.084034
5.301678
4.918130
4.259488
3.554873
2.923838
2.597934
2.938980
3.752192
4.615762
5.209063
5.495738
5.517818
5.136350
3.657634
2.299630
2.139776
2.139776
2.299630
3.657634
5.136350
5.517818
5.495738
5.209063
4.615762
3.752192
2.938980
2.597934
2.923838
3.554873
4.259488
4.918130
5.301678
5.084034
3.238867
1.972909
1.752361
2.635391
3.238840
4.870919
6.279236
6.775029
6.914302
6.750351
6.083199
4.940892
3.997979
3.325760
3.476790
4.234067
4.865607
5.463639
5.928448
5.451940
3.391301
2.566222
2.115406
2.573420
3.424119
5.537530
7.280975
7.908110
8.037706
7.658003
6.698036
5.200717
4.321614
4.388426
4.387026
5.220019
5.862244
6.227499
6.357846
5.052855
2.930318
2.739268
2.311388
2.832687
3.847021
5.975888
7.621869
8.266511
8.309374
7.776808
6.474535
4.128014
3.472947
3.841645
3.851205
5.256814
6.380287
6.439263
6.169159
5.142410
2.432415
2.573335
2.407137
3.671089
4.565843
6.381936
7.746419
8.351127
8.394572
7.771564
5.993200
2.989912
2.811371
2.892087
2.818307
3.971496
6.471924
6.647831
6.009785
5.353875
2.650461
2.249600
2.247104
3.878143
4.513495
6.021012
7.225350
7.747239
7.791501
7.575055
5.747814
2.931287
2.562547
2.367220
2.244453
2.949022
5.631616
6.648148
5.770911
4.870607
3.320495
1.917751
1.509388
3.215095
3.575471
4.586831
4.857290
4.977307
5.268739
5.677898
5.073020
2.532771
2.020374
1.903330
1.964477
2.490459
4.720234
5.650662
4.667419
3.712153
2.547872
1.141003
0.371425
2.133487
2.577330
3.449043
3.197609
2.941411
2.736586
2.512824
1.803048
0.709166
0.459347
0.701268
1.031882
1.596668
3.556133
3.197886
2.712206
2.428022
1.226692
-0.231967
-0.321159
1.465561
1.471364
2.636086
2.654411
2.486163
2.366764
2.114525
0.380124
-3.080310
-2.313434
-1.870036
-1.384552
-0.752413
2.866288
2.979670
2.968665
2.791344
1.684504
0.157566
0.172564
0.689713
0.481075
1.870480
2.489503
2.468257
2.391996
2.077217
-0.613325
-4.428708
-3.248405
-2.770606
-1.904636
-0.566843
2.622989
3.019252
3.197179
3.205262
2.447659
0.827143
0.532459
SCALARS solution_2 double
LOOKUP_TABLE defaul
3.776331
4.634534
5.158029
6.248653
6.743734
6.800277
6.077579
3.708474
2.290027
1.114100
0.269560
1.776318
3.213454
5.194041
5.459827
5.655918
5.609079
4.724927
3.841614
3.871246
3.550116
4.248410
5.458317
6.407328
6.886378
6.836512
5.448032
3.702833
1.821398
0.705461
0.910297
2.142205
3.626804
4.971512
4.972050
5.087724
5.070129
4.269353
3.886329
4.028228
4.400872
4.242823
6.256324
7.338465
7.439897
6.927396
5.313601
4.326521
2.138836
1.470754
2.190347
3.410305
4.781752
5.908821
5.635475
5.397586
5.180766
4.480583
4.381064
4.398147
4.628329
4.174471
5.898799
7.778525
7.820100
7.267106
6.886190
5.403608
3.362122
2.580052
3.217250
5.511316
6.847188
7.980818
7.883006
7.197134
6.555571
5.736213
5.086941
4.449383
4.122028
4.114922
4.728577
7.380796
8.117484
7.742292
7.535198
6.799649
4.935376
3.754364
4.235119
6.354250
7.595815
8.040383
8.450436
8.313048
7.859379
6.984830
5.767510
4.958550
3.854088
4.263787
4.974829
6.207761
7.884831
8.048212
7.558176
7.270507
6.022392
4.754434
5.388710
7.401442
8.057275
8.391933
8.589539
8.650631
8.394584
7.588898
6.505822
5.690181
4.192898
4.404563
5.587390
5.954828
7.105006
7.594762
7.499847
6.923413
6.192148
5.073489
5.710623
7.055132
7.952405
8.433150
8.671568
8.714010
8.469068
7.810369
6.928645
6.296556
4.960727
4.863690
5.944441
6.419741
6.513137
6.805879
6.699641
6.421938
6.129835
5.200775
5.266899
6.387022
7.452300
8.021525
8.329396
8.417292
8.144309
7.515022
6.727418
6.375963
5.814233
5.448292
6.064033
6.549448
6.709169
6.715104
6.252402
5.498249
4.922844
4.388160
4.324228
5.470917
6.615275
7.383831
7.877372
7.988733
7.662323
6.829234
5.718709
5.033646
4.845072
5.587433
6.165925
6.722005
7.028898
6.981417
6.465877
5.387085
3.969289
3.020504
3.150713
4.398494
5.850012
6.824413
7.335637
7.416353
7.078593
6.298213
5.120147
3.953027
3.953027
5.120147
6.298213
7.078593
7.416353
7.335637
6.824413
5.850012
4.398494
3.150713
3.020504
3.969289
5.387085
6.465877
6.981417
7.028898
6.722005
6.165925
5.587433
4.845072
5.033646
5.718709
6.829234
7.662323
7.988733
7.877372
7.383831
6.615275
5.470917
4.324228
4.388160
4.922844
5.498249
6.252402
6.715104
6.709169
6.549448
6.064033
5.448292
5.814233
6.375963
6.727418
7.515022
8.144309
8.417292
8.329396
8.021525
7.452300
6.387022
5.266899
5.200775
6.129835
6.421938
6.699641
6.805879
6.513137
6.419741
5.944441
4.863690
4.960727
6.296556
6.928645
7.810369
8.469068
8.714010
8.671568
8.433150
7.952405
7.055132
5.710623
5.073489
6.192148
6.923413
7.499847
7.594762
7.105006
5.954828
5.587390
4.404563
4.192898
5.690181
6.505822
7.588898
8.394584
8.650631
8.589539
8.391933
8.057275
7.401442
5.388710
4.754434
6.022392
7.270507
7.558176
8.048212
7.884831
6.207761
4.974829
4.263787
3.854088
4.958550
5.767510
6.984830
7.859379
8.313048
8.450436
8.040383
7.595815
6.354250
4.235119
3.754364
4.935376
6.799649
7.535198
7.742292
8.117484
7.380796
4.728577
4.114922
4.122028
4.449383
5.086941
5.736213
6.555571
7.197134
7.883006
7.980818
6.847188
5.511316
3.217250
2.580052
3.362122
5.403608
6.886190
7.267106
7.820100
7.778525
5.898799
4.174471
4.628329
4.398147
4.381064
4.480583
5.180766
5.397586
5.635475
5.908821
4.781752
3.410305
2.190347
1.470754
2.138836
4.326521
5.313601
6.927396
7.439897
7.338465
6.256324
4.242823
4.400872
4.028228
3.886329
4.269353
5.070129
5.087724
4.972050
4.971512
3.626804
2.142205
0.910297
0.705461
1.821398
3.702833
5.448032
6.836512
6.886378
6.407328
5.458317
4.248410
3.550116
3.871246
3.841614
4.724927
5.609079
5.655918
5.459827
5.194041
3.213454
1.776318
0.269560
1.114100
2.290027
3.708474
6.077579
6.800277
6.743734
6.248653
5.158029
4.634534
3.776331
SCALARS solution_3 double
LOOKUP_TABLE defaul
6.371250
6.309951
7.327701
7.953828
8.258105
7.898639
7.017623
5.862157
4.960943
4.329599
3.242209
3.766752
5.225353
6.992689
7.418349
6.975468
6.282249
6.121600
6.484886
5.926210
5.489225
5.842966
7.411116
7.769699
7.916582
7.680066
6.851909
5.003248
5.000579
5.152705
4.358020
5.375984
6.012463
7.497944
7.568173
7.189059
6.421319
5.637863
6.314663
5.662029
5.476633
6.671598
7.523917
8.215979
8.607682
8.785254
7.682634
5.592357
6.328002
6.591726
5.995320
6.203367
7.200309
8.076557
8.156670
8.002568
7.519502
6.580601
6.349529
6.416787
5.380105
6.203271
7.493542
9.728298
10.478507
10.732016
8.804888
7.575098
7.763995
7.395114
7.056451
6.933388
8.927088
10.046416
9.740422
9.584866
9.257475
8.377052
7.841609
7.663023
5.527804
5.453964
7.196655
10.360636
11.513786
11.709996
9.893375
8.153750
7.989922
7.632383
7.395026
7.618398
10.516867
12.726011
13.163496
12.885047
11.899516
10.139797
8.647639
8.199567
6.512562
5.604873
6.766955
9.943102
12.091185
11.891526
10.675807
9.037306
8.476565
8.105597
7.744116
7.930386
11.232750
13.279872
13.960258
13.905689
13.044814
11.154609
9.365469
8.457267
7.551135
6.524898
6.804611
9.718093
11.921530
12.039845
10.896082
9.215644
8.375460
8.226622
8.361560
9.146671
11.665912
13.294464
13.951341
13.905682
13.033910
11.029509
9.171985
8.024338
8.039880
7.366276
7.408052
9.673601
11.264488
11.820878
11.209836
9.406986
7.492746
7.104420
8.471548
9.677162
11.555358
12.851720
13.396689
13.321052
12.502007
10.227039
8.185720
6.939497
6.773010
7.618013
7.661647
9.338088
10.354708
10.521943
10.133876
9.213723
8.266536
7.249338
7.726589
9.021554
10.476854
11.499474
11.928845
11.885585
11.386049
9.276045
7.375893
6.543224
6.661871
7.466497
8.097755
9.342865
9.921663
9.840703
9.218424
8.230047
7.051934
6.295962
6.454436
7.564884
8.912419
9.962751
10.509286
10.566683
10.316103
8.932146
7.249098
6.651530
6.651530
7.249098
8.932146
10.316103
10.566683
10.509286
9.962751
8.912419
7.564884
6.454436
6.295962
7.051934
8.230047
9.218424
9.840703
9.921663
9.342865
8.097755
7.466497
6.661871
6.543224
7.375893
9.276045
11.386049
11.885585
11.928845
11.499474
10.476854
9.021554
7.726589
7.249338
8.266536
9.213723
10.133876
10.521943
10.354708
9.338088
7.661647
7.618013
6.773010
6.939497
8.185720
10.227039
12.502007
13.321052
13.396689
12.851720
11.555358
9.677162
8.471548
7.104420
7.492746
9.406986
11.209836
11.820878
11.264488
9.673601
7.408052
7.366276
8.039880
8.024338
9.171985
11.029509
13.033910
13.905682
13.951341
13.294464
11.665912
9.146671
8.361560
8.226622
8.375460
9.215644
10.896082
12.039845
11.921530
9.718093
6.804611
6.524898
7.551135
8.457267
9.365469
11.154609
13.044814
13.905689
13.960258
13.279872
11.232750
7.930386
7.744116
8.105597
8.476565
9.037306
10.675807
11.891526
12.091185
9.943102
6.766955
5.604873
6.512562
8.199567
8.647639
10.139797
11.899516
12.885047
13.163496
12.726011
10.516867
7.618398
7.395026
7.632383
7.989922
8.153750
9.893375
11.709996
11.513786
10.360636
7.196655
5.453964
5.527804
7.663023
7.841609
8.377052
9.257475
9.584866
9.740422
10.046416
8.927088
6.933388
7.056451
7.395114
7.763995
7.575098
8.804888
10.732016
10.478507
9.728298
7.493542
6.203271
5.380105
6.416787
6.349529
6.580601
7.519502
8.002568
8.156670
8.076557
7.200309
6.203367
5.995320
6.591726
6.328002
5.592357
7.682634
8.785254
8.607682
8.215979
7.523917
6.671598
5.476633
5.662029
6.314663
5.637863
6.421319
7.189059
7.568173
7.497944
6.012463
5.375984
4.358020
5.152705
5.000579
5.003248
6.851909
7.680066
7.916582
7.769699
7.411116
5.842966
5.489225
5.926210
6.484886
6.121600
6.282249
6.975468
7.418349
6.992689
5.225353
3.766752
3.242209
4.329599
4.960943
5.862157
7.017623
7.898639
8.258105
7.953828
7.327701
6.309951
6.371250
