# vtk DataFile Version 2.0
this shit
ASCII
DATASET POLYDATA
POINTS 100 double
-12.566371 -12.566371 0.000000
-9.773844 -12.566371 0.000000
-6.981317 -12.566371 0.000000
-4.188790 -12.566371 0.000000
-1.396263 -12.566371 0.000000
1.396263 -12.566371 0.000000
4.188790 -12.566371 0.000000
6.981317 -12.566371 0.000000
9.773844 -12.566371 0.000000
12.566371 -12.566371 0.000000
-12.566371 -9.773844 0.000000
-9.773844 -9.773844 0.000000
-6.981317 -9.773844 0.000000
-4.188790 -9.773844 0.000000
-1.396263 -9.773844 0.000000
1.396263 -9.773844 0.000000
4.188790 -9.773844 0.000000
6.981317 -9.773844 0.000000
9.773844 -9.773844 0.000000
12.566371 -9.773844 0.000000
-12.566371 -6.981317 0.000000
-9.773844 -6.981317 0.000000
-6.981317 -6.981317 0.000000
-4.188790 -6.981317 0.000000
-1.396263 -6.981317 0.000000
1.396263 -6.981317 0.000000
4.188790 -6.981317 0.000000
6.981317 -6.981317 0.000000
9.773844 -6.981317 0.000000
12.566371 -6.981317 0.000000
-12.566371 -4.188790 0.000000
-9.773844 -4.188790 0.000000
-6.981317 -4.188790 0.000000
-4.188790 -4.188790 0.000000
-1.396263 -4.188790 0.000000
1.396263 -4.188790 0.000000
4.188790 -4.188790 0.000000
6.981317 -4.188790 0.000000
9.773844 -4.188790 0.000000
12.566371 -4.188790 0.000000
-12.566371 -1.396263 0.000000
-9.773844 -1.396263 0.000000
-6.981317 -1.396263 0.000000
-4.188790 -1.396263 0.000000
-1.396263 -1.396263 0.000000
1.396263 -1.396263 0.000000
4.188790 -1.396263 0.000000
6.981317 -1.396263 0.000000
9.773844 -1.396263 0.000000
12.566371 -1.396263 0.000000
-12.566371 1.396263 0.000000
-9.773844 1.396263 0.000000
-6.981317 1.396263 0.000000
-4.188790 1.396263 0.000000
-1.396263 1.396263 0.000000
1.396263 1.396263 0.000000
4.188790 1.396263 0.000000
6.981317 1.396263 0.000000
9.773844 1.396263 0.000000
12.566371 1.396263 0.000000
-12.566371 4.188790 0.000000
-9.773844 4.188790 0.000000
-6.981317 4.188790 0.000000
-4.188790 4.188790 0.000000
-1.396263 4.188790 0.000000
1.396263 4.188790 0.000000
4.188790 4.188790 0.000000
6.981317 4.188790 0.000000
9.773844 4.188790 0.000000
12.566371 4.188790 0.000000
-12.566371 6.981317 0.000000
-9.773844 6.981317 0.000000
-6.981317 6.981317 0.000000
-4.188790 6.981317 0.000000
-1.396263 6.981317 0.000000
1.396263 6.981317 0.000000
4.188790 6.981317 0.000000
6.981317 6.981317 0.000000
9.773844 6.981317 0.000000
12.566371 6.981317 0.000000
-12.566371 9.773844 0.000000
-9.773844 9.773844 0.000000
-6.981317 9.773844 0.000000
-4.188790 9.773844 0.000000
-1.396263 9.773844 0.000000
1.396263 9.773844 0.000000
4.188790 9.773844 0.000000
6.981317 9.773844 0.000000
9.773844 9.773844 0.000000
12.566371 9.773844 0.000000
-12.566371 12.566371 0.000000
-9.773844 12.566371 0.000000
-6.981317 12.566371 0.000000
-4.188790 12.566371 0.000000
-1.396263 12.566371 0.000000
1.396263 12.566371 0.000000
4.188790 12.566371 0.000000
6.981317 12.566371 0.000000
9.773844 12.566371 0.000000
12.566371 12.566371 0.000000
POLYGONS 162 648
3 0 1 11
3 0 11 10
3 1 2 12
3 1 12 11
3 2 3 13
3 2 13 12
3 3 4 14
3 3 14 13
3 4 5 15
3 4 15 14
3 5 6 16
3 5 16 15
3 6 7 17
3 6 17 16
3 7 8 18
3 7 18 17
3 8 9 19
3 8 19 18
3 10 11 21
3 10 21 20
3 11 12 22
3 11 22 21
3 12 13 23
3 12 23 22
3 13 14 24
3 13 24 23
3 14 15 25
3 14 25 24
3 15 16 26
3 15 26 25
3 16 17 27
3 16 27 26
3 17 18 28
3 17 28 27
3 18 19 29
3 18 29 28
3 20 21 31
3 20 31 30
3 21 22 32
3 21 32 31
3 22 23 33
3 22 33 32
3 23 24 34
3 23 34 33
3 24 25 35
3 24 35 34
3 25 26 36
3 25 36 35
3 26 27 37
3 26 37 36
3 27 28 38
3 27 38 37
3 28 29 39
3 28 39 38
3 30 31 41
3 30 41 40
3 31 32 42
3 31 42 41
3 32 33 43
3 32 43 42
3 33 34 44
3 33 44 43
3 34 35 45
3 34 45 44
3 35 36 46
3 35 46 45
3 36 37 47
3 36 47 46
3 37 38 48
3 37 48 47
3 38 39 49
3 38 49 48
3 40 41 51
3 40 51 50
3 41 42 52
3 41 52 51
3 42 43 53
3 42 53 52
3 43 44 54
3 43 54 53
3 44 45 55
3 44 55 54
3 45 46 56
3 45 56 55
3 46 47 57
3 46 57 56
3 47 48 58
3 47 58 57
3 48 49 59
3 48 59 58
3 50 51 61
3 50 61 60
3 51 52 62
3 51 62 61
3 52 53 63
3 52 63 62
3 53 54 64
3 53 64 63
3 54 55 65
3 54 65 64
3 55 56 66
3 55 66 65
3 56 57 67
3 56 67 66
3 57 58 68
3 57 68 67
3 58 59 69
3 58 69 68
3 60 61 71
3 60 71 70
3 61 62 72
3 61 72 71
3 62 63 73
3 62 73 72
3 63 64 74
3 63 74 73
3 64 65 75
3 64 75 74
3 65 66 76
3 65 76 75
3 66 67 77
3 66 77 76
3 67 68 78
3 67 78 77
3 68 69 79
3 68 79 78
3 70 71 81
3 70 81 80
3 71 72 82
3 71 82 81
3 72 73 83
3 72 83 82
3 73 74 84
3 73 84 83
3 74 75 85
3 74 85 84
3 75 76 86
3 75 86 85
3 76 77 87
3 76 87 86
3 77 78 88
3 77 88 87
3 78 79 89
3 78 89 88
3 80 81 91
3 80 91 90
3 81 82 92
3 81 92 91
3 82 83 93
3 82 93 92
3 83 84 94
3 83 94 93
3 84 85 95
3 84 95 94
3 85 86 96
3 85 96 95
3 86 87 97
3 86 97 96
3 87 88 98
3 87 98 97
3 88 89 99
3 88 99 98
POINT_DATA 100
SCALARS solution_0 double
LOOKUP_TABLE defaul
-34.426493
-353.962330
-33.770045
-314.059393
-78.572204
-193.836527
-193.678439
-68.013365
-313.509872
-33.420011
-349.895018
-162.069197
-301.696329
-152.637667
-183.673882
-218.795347
-132.736064
-319.546738
-157.844751
-354.357658
-36.513276
-293.747682
-78.661066
-161.803501
-219.676277
-120.333239
-326.868326
-72.873085
-354.005829
-36.465232
-280.410866
-187.203412
-152.993591
-242.012467
-103.683076
-332.667085
-156.624023
-344.896844
-185.202915
-276.685021
-109.408033
-135.666071
-246.845493
-46.472923
-336.238337
-63.903019
-345.072025
-60.830196
-267.076458
-122.167590
-122.167590
-267.076458
-60.830196
-345.072025
-63.903019
-336.238337
-46.472923
-246.845493
-135.666071
-109.408033
-276.685021
-185.202915
-344.896844
-156.624023
-332.667085
-103.683076
-242.012467
-152.993591
-187.203412
-280.410866
-36.465232
-354.005829
-72.873085
-326.868326
-120.333239
-219.676277
-161.803501
-78.661066
-293.747682
-36.513276
-354.357658
-157.844751
-319.546738
-132.736064
-218.795347
-183.673882
-152.637667
-301.696329
-162.069197
-349.895018
-33.420011
-313.509872
-68.013365
-193.678439
-193.836527
-78.572204
-314.059393
-33.770045
-353.962330
-34.426493
SCALARS solution_1 double
LOOKUP_TABLE defaul
-27.738860
-149.369434
-32.997702
-135.092563
-75.726491
-104.491178
-118.534701
-61.665583
-144.077693
-27.726130
-34.809293
-144.265145
-42.291969
-145.943669
-89.480135
-112.340137
-70.425256
-69.010526
-108.574550
-34.493059
-24.980207
-174.696392
-52.794897
-156.779427
-103.430386
-73.366765
-147.033719
-42.040203
-171.588400
-24.824587
-38.395827
-151.294000
-45.505692
-167.368498
-65.715045
-128.125663
-112.755824
-76.803465
-147.153139
-38.400028
-22.979537
-7.506754
-6.008131
-12.866798
-2.258702
-28.654991
-1.659271
-36.024894
-2.480522
-22.621303
-22.621303
-2.480522
-36.024894
-1.659271
-28.654991
-2.258702
-12.866798
-6.008131
-7.506754
-22.979537
-38.400028
-147.153139
-76.803465
-112.755824
-128.125663
-65.715045
-167.368498
-45.505692
-151.294000
-38.395827
-24.824587
-171.588400
-42.040203
-147.033719
-73.366765
-103.430386
-156.779427
-52.794897
-174.696392
-24.980207
-34.493059
-108.574550
-69.010526
-70.425256
-112.340137
-89.480135
-145.943669
-42.291969
-144.265145
-34.809293
-27.726130
-144.077693
-61.665583
-118.534701
-104.491178
-75.726491
-135.092563
-32.997702
-149.369434
-27.738860
