# vtk DataFile Version 2.0
this shit
ASCII
DATASET POLYDATA
POINTS 400 double
-3.141593 -3.141593 0.000000
-2.810899 -3.141593 0.000000
-2.480205 -3.141593 0.000000
-2.149511 -3.141593 0.000000
-1.818817 -3.141593 0.000000
-1.488123 -3.141593 0.000000
-1.157429 -3.141593 0.000000
-0.826735 -3.141593 0.000000
-0.496041 -3.141593 0.000000
-0.165347 -3.141593 0.000000
0.165347 -3.141593 0.000000
0.496041 -3.141593 0.000000
0.826735 -3.141593 0.000000
1.157429 -3.141593 0.000000
1.488123 -3.141593 0.000000
1.818817 -3.141593 0.000000
2.149511 -3.141593 0.000000
2.480205 -3.141593 0.000000
2.810899 -3.141593 0.000000
3.141593 -3.141593 0.000000
-3.141593 -2.810899 0.000000
-2.810899 -2.810899 0.000000
-2.480205 -2.810899 0.000000
-2.149511 -2.810899 0.000000
-1.818817 -2.810899 0.000000
-1.488123 -2.810899 0.000000
-1.157429 -2.810899 0.000000
-0.826735 -2.810899 0.000000
-0.496041 -2.810899 0.000000
-0.165347 -2.810899 0.000000
0.165347 -2.810899 0.000000
0.496041 -2.810899 0.000000
0.826735 -2.810899 0.000000
1.157429 -2.810899 0.000000
1.488123 -2.810899 0.000000
1.818817 -2.810899 0.000000
2.149511 -2.810899 0.000000
2.480205 -2.810899 0.000000
2.810899 -2.810899 0.000000
3.141593 -2.810899 0.000000
-3.141593 -2.480205 0.000000
-2.810899 -2.480205 0.000000
-2.480205 -2.480205 0.000000
-2.149511 -2.480205 0.000000
-1.818817 -2.480205 0.000000
-1.488123 -2.480205 0.000000
-1.157429 -2.480205 0.000000
-0.826735 -2.480205 0.000000
-0.496041 -2.480205 0.000000
-0.165347 -2.480205 0.000000
0.165347 -2.480205 0.000000
0.496041 -2.480205 0.000000
0.826735 -2.480205 0.000000
1.157429 -2.480205 0.000000
1.488123 -2.480205 0.000000
1.818817 -2.480205 0.000000
2.149511 -2.480205 0.000000
2.480205 -2.480205 0.000000
2.810899 -2.480205 0.000000
3.141593 -2.480205 0.000000
-3.141593 -2.149511 0.000000
-2.810899 -2.149511 0.000000
-2.480205 -2.149511 0.000000
-2.149511 -2.149511 0.000000
-1.818817 -2.149511 0.000000
-1.488123 -2.149511 0.000000
-1.157429 -2.149511 0.000000
-0.826735 -2.149511 0.000000
-0.496041 -2.149511 0.000000
-0.165347 -2.149511 0.000000
0.165347 -2.149511 0.000000
0.496041 -2.149511 0.000000
0.826735 -2.149511 0.000000
1.157429 -2.149511 0.000000
1.488123 -2.149511 0.000000
1.818817 -2.149511 0.000000
2.149511 -2.149511 0.000000
2.480205 -2.149511 0.000000
2.810899 -2.149511 0.000000
3.141593 -2.149511 0.000000
-3.141593 -1.818817 0.000000
-2.810899 -1.818817 0.000000
-2.480205 -1.818817 0.000000
-2.149511 -1.818817 0.000000
-1.818817 -1.818817 0.000000
-1.488123 -1.818817 0.000000
-1.157429 -1.818817 0.000000
-0.826735 -1.818817 0.000000
-0.496041 -1.818817 0.000000
-0.165347 -1.818817 0.000000
0.165347 -1.818817 0.000000
0.496041 -1.818817 0.000000
0.826735 -1.818817 0.000000
1.157429 -1.818817 0.000000
1.488123 -1.818817 0.000000
1.818817 -1.818817 0.000000
2.149511 -1.818817 0.000000
2.480205 -1.818817 0.000000
2.810899 -1.818817 0.000000
3.141593 -1.818817 0.000000
-3.141593 -1.488123 0.000000
-2.810899 -1.488123 0.000000
-2.480205 -1.488123 0.000000
-2.149511 -1.488123 0.000000
-1.818817 -1.488123 0.000000
-1.488123 -1.488123 0.000000
-1.157429 -1.488123 0.000000
-0.826735 -1.488123 0.000000
-0.496041 -1.488123 0.000000
-0.165347 -1.488123 0.000000
0.165347 -1.488123 0.000000
0.496041 -1.488123 0.000000
0.826735 -1.488123 0.000000
1.157429 -1.488123 0.000000
1.488123 -1.488123 0.000000
1.818817 -1.488123 0.000000
2.149511 -1.488123 0.000000
2.480205 -1.488123 0.000000
2.810899 -1.488123 0.000000
3.141593 -1.488123 0.000000
-3.141593 -1.157429 0.000000
-2.810899 -1.157429 0.000000
-2.480205 -1.157429 0.000000
-2.149511 -1.157429 0.000000
-1.818817 -1.157429 0.000000
-1.488123 -1.157429 0.000000
-1.157429 -1.157429 0.000000
-0.826735 -1.157429 0.000000
-0.496041 -1.157429 0.000000
-0.165347 -1.157429 0.000000
0.165347 -1.157429 0.000000
0.496041 -1.157429 0.000000
0.826735 -1.157429 0.000000
1.157429 -1.157429 0.000000
1.488123 -1.157429 0.000000
1.818817 -1.157429 0.000000
2.149511 -1.157429 0.000000
2.480205 -1.157429 0.000000
2.810899 -1.157429 0.000000
3.141593 -1.157429 0.000000
-3.141593 -0.826735 0.000000
-2.810899 -0.826735 0.000000
-2.480205 -0.826735 0.000000
-2.149511 -0.826735 0.000000
-1.818817 -0.826735 0.000000
-1.488123 -0.826735 0.000000
-1.157429 -0.826735 0.000000
-0.826735 -0.826735 0.000000
-0.496041 -0.826735 0.000000
-0.165347 -0.826735 0.000000
0.165347 -0.826735 0.000000
0.496041 -0.826735 0.000000
0.826735 -0.826735 0.000000
1.157429 -0.826735 0.000000
1.488123 -0.826735 0.000000
1.818817 -0.826735 0.000000
2.149511 -0.826735 0.000000
2.480205 -0.826735 0.000000
2.810899 -0.826735 0.000000
3.141593 -0.826735 0.000000
-3.141593 -0.496041 0.000000
-2.810899 -0.496041 0.000000
-2.480205 -0.496041 0.000000
-2.149511 -0.496041 0.000000
-1.818817 -0.496041 0.000000
-1.488123 -0.496041 0.000000
-1.157429 -0.496041 0.000000
-0.826735 -0.496041 0.000000
-0.496041 -0.496041 0.000000
-0.165347 -0.496041 0.000000
0.165347 -0.496041 0.000000
0.496041 -0.496041 0.000000
0.826735 -0.496041 0.000000
1.157429 -0.496041 0.000000
1.488123 -0.496041 0.000000
1.818817 -0.496041 0.000000
2.149511 -0.496041 0.000000
2.480205 -0.496041 0.000000
2.810899 -0.496041 0.000000
3.141593 -0.496041 0.000000
-3.141593 -0.165347 0.000000
-2.810899 -0.165347 0.000000
-2.480205 -0.165347 0.000000
-2.149511 -0.165347 0.000000
-1.818817 -0.165347 0.000000
-1.488123 -0.165347 0.000000
-1.157429 -0.165347 0.000000
-0.826735 -0.165347 0.000000
-0.496041 -0.165347 0.000000
-0.165347 -0.165347 0.000000
0.165347 -0.165347 0.000000
0.496041 -0.165347 0.000000
0.826735 -0.165347 0.000000
1.157429 -0.165347 0.000000
1.488123 -0.165347 0.000000
1.818817 -0.165347 0.000000
2.149511 -0.165347 0.000000
2.480205 -0.165347 0.000000
2.810899 -0.165347 0.000000
3.141593 -0.165347 0.000000
-3.141593 0.165347 0.000000
-2.810899 0.165347 0.000000
-2.480205 0.165347 0.000000
-2.149511 0.165347 0.000000
-1.818817 0.165347 0.000000
-1.488123 0.165347 0.000000
-1.157429 0.165347 0.000000
-0.826735 0.165347 0.000000
-0.496041 0.165347 0.000000
-0.165347 0.165347 0.000000
0.165347 0.165347 0.000000
0.496041 0.165347 0.000000
0.826735 0.165347 0.000000
1.157429 0.165347 0.000000
1.488123 0.165347 0.000000
1.818817 0.165347 0.000000
2.149511 0.165347 0.000000
2.480205 0.165347 0.000000
2.810899 0.165347 0.000000
3.141593 0.165347 0.000000
-3.141593 0.496041 0.000000
-2.810899 0.496041 0.000000
-2.480205 0.496041 0.000000
-2.149511 0.496041 0.000000
-1.818817 0.496041 0.000000
-1.488123 0.496041 0.000000
-1.157429 0.496041 0.000000
-0.826735 0.496041 0.000000
-0.496041 0.496041 0.000000
-0.165347 0.496041 0.000000
0.165347 0.496041 0.000000
0.496041 0.496041 0.000000
0.826735 0.496041 0.000000
1.157429 0.496041 0.000000
1.488123 0.496041 0.000000
1.818817 0.496041 0.000000
2.149511 0.496041 0.000000
2.480205 0.496041 0.000000
2.810899 0.496041 0.000000
3.141593 0.496041 0.000000
-3.141593 0.826735 0.000000
-2.810899 0.826735 0.000000
-2.480205 0.826735 0.000000
-2.149511 0.826735 0.000000
-1.818817 0.826735 0.000000
-1.488123 0.826735 0.000000
-1.157429 0.826735 0.000000
-0.826735 0.826735 0.000000
-0.496041 0.826735 0.000000
-0.165347 0.826735 0.000000
0.165347 0.826735 0.000000
0.496041 0.826735 0.000000
0.826735 0.826735 0.000000
1.157429 0.826735 0.000000
1.488123 0.826735 0.000000
1.818817 0.826735 0.000000
2.149511 0.826735 0.000000
2.480205 0.826735 0.000000
2.810899 0.826735 0.000000
3.141593 0.826735 0.000000
-3.141593 1.157429 0.000000
-2.810899 1.157429 0.000000
-2.480205 1.157429 0.000000
-2.149511 1.157429 0.000000
-1.818817 1.157429 0.000000
-1.488123 1.157429 0.000000
-1.157429 1.157429 0.000000
-0.826735 1.157429 0.000000
-0.496041 1.157429 0.000000
-0.165347 1.157429 0.000000
0.165347 1.157429 0.000000
0.496041 1.157429 0.000000
0.826735 1.157429 0.000000
1.157429 1.157429 0.000000
1.488123 1.157429 0.000000
1.818817 1.157429 0.000000
2.149511 1.157429 0.000000
2.480205 1.157429 0.000000
2.810899 1.157429 0.000000
3.141593 1.157429 0.000000
-3.141593 1.488123 0.000000
-2.810899 1.488123 0.000000
-2.480205 1.488123 0.000000
-2.149511 1.488123 0.000000
-1.818817 1.488123 0.000000
-1.488123 1.488123 0.000000
-1.157429 1.488123 0.000000
-0.826735 1.488123 0.000000
-0.496041 1.488123 0.000000
-0.165347 1.488123 0.000000
0.165347 1.488123 0.000000
0.496041 1.488123 0.000000
0.826735 1.488123 0.000000
1.157429 1.488123 0.000000
1.488123 1.488123 0.000000
1.818817 1.488123 0.000000
2.149511 1.488123 0.000000
2.480205 1.488123 0.000000
2.810899 1.488123 0.000000
3.141593 1.488123 0.000000
-3.141593 1.818817 0.000000
-2.810899 1.818817 0.000000
-2.480205 1.818817 0.000000
-2.149511 1.818817 0.000000
-1.818817 1.818817 0.000000
-1.488123 1.818817 0.000000
-1.157429 1.818817 0.000000
-0.826735 1.818817 0.000000
-0.496041 1.818817 0.000000
-0.165347 1.818817 0.000000
0.165347 1.818817 0.000000
0.496041 1.818817 0.000000
0.826735 1.818817 0.000000
1.157429 1.818817 0.000000
1.488123 1.818817 0.000000
1.818817 1.818817 0.000000
2.149511 1.818817 0.000000
2.480205 1.818817 0.000000
2.810899 1.818817 0.000000
3.141593 1.818817 0.000000
-3.141593 2.149511 0.000000
-2.810899 2.149511 0.000000
-2.480205 2.149511 0.000000
-2.149511 2.149511 0.000000
-1.818817 2.149511 0.000000
-1.488123 2.149511 0.000000
-1.157429 2.149511 0.000000
-0.826735 2.149511 0.000000
-0.496041 2.149511 0.000000
-0.165347 2.149511 0.000000
0.165347 2.149511 0.000000
0.496041 2.149511 0.000000
0.826735 2.149511 0.000000
1.157429 2.149511 0.000000
1.488123 2.149511 0.000000
1.818817 2.149511 0.000000
2.149511 2.149511 0.000000
2.480205 2.149511 0.000000
2.810899 2.149511 0.000000
3.141593 2.149511 0.000000
-3.141593 2.480205 0.000000
-2.810899 2.480205 0.000000
-2.480205 2.480205 0.000000
-2.149511 2.480205 0.000000
-1.818817 2.480205 0.000000
-1.488123 2.480205 0.000000
-1.157429 2.480205 0.000000
-0.826735 2.480205 0.000000
-0.496041 2.480205 0.000000
-0.165347 2.480205 0.000000
0.165347 2.480205 0.000000
0.496041 2.480205 0.000000
0.826735 2.480205 0.000000
[...]
POINT_DATA 400
SCALARS solution_0 double
LOOKUP_TABLE defaul
-41.728291
-38.263284
-34.284958
-30.219219
-26.505245
-23.525152
-21.549612
-20.732303
-37.622083
-52.312789
-52.312869
-37.630243
-32.640760
-37.339444
-41.458352
-44.384751
-45.840360
-45.788814
-44.347892
-41.731466
-37.007396
-33.923974
-30.165772
-26.172651
-22.398716
-19.238077
-16.981041
-15.986359
-39.484411
-51.974988
-49.913112
-33.082229
-24.059959
-28.637377
-33.195411
-36.873032
-39.155673
-39.874422
-39.090595
-36.995513
-20.965028
-18.867984
-15.693945
-12.029769
-8.357254
-5.072446
-2.813226
-16.177716
-38.497569
-48.917777
-44.949434
-26.289075
-3.335814
-6.471958
-10.975320
-15.468037
-19.039530
-21.188142
-21.783648
-20.890624
-13.612571
-10.798007
-3.674077
-1.328535
0.899198
2.658226
1.327785
-14.891413
-34.742778
-43.359752
-37.809787
-18.053403
2.194456
3.597518
3.141122
2.607215
2.030140
-0.442779
-3.242320
-4.630272
-17.169505
-14.774203
-2.708289
0.931908
2.404098
3.251930
2.556785
-11.213618
-28.567105
-35.739987
-29.123252
-9.619598
2.613126
3.501817
3.545885
3.583427
3.618785
2.945987
1.168556
-0.446409
-20.677728
-18.468189
-4.741165
0.766053
1.862327
2.354458
2.048114
-6.119931
-20.649156
-26.753819
-19.787153
-2.523560
3.260462
3.571986
3.643015
3.740611
3.716588
3.281967
1.788655
-1.151307
-23.623931
-21.045744
-6.005933
1.825427
1.863792
1.741530
1.539828
-1.562607
-12.117009
-17.390163
-10.975895
1.790660
3.561637
3.642660
3.708435
3.791733
3.703316
3.361828
1.181921
-4.948435
-25.472698
-22.009488
-5.934116
3.007610
2.835721
1.952999
1.610312
0.938083
-4.659374
-8.951702
-4.172447
2.155915
3.262321
3.466680
3.623602
3.699203
3.516880
2.950805
-3.166013
-10.631330
-25.789027
-21.100134
-4.276187
2.761248
2.924083
2.403893
1.966556
1.841950
0.442504
-2.651168
-0.082326
2.396577
2.891434
3.135064
3.396830
3.451395
3.219723
2.391205
-8.572669
-16.333254
-24.329590
-18.313776
-1.273805
2.330439
2.361628
2.229907
2.157794
1.804999
0.710339
0.074797
0.720678
1.528930
1.937300
2.295594
2.559043
2.558588
2.412927
1.973102
-13.930013
-21.088802
-21.088802
-13.930013
1.973102
2.412927
2.558588
2.559043
2.295594
1.937300
1.528930
0.720678
0.074797
0.710339
1.804999
2.157794
2.229907
2.361628
2.330439
-1.273805
-18.313776
-24.329590
-16.333254
-8.572669
2.391205
3.219723
3.451395
3.396830
3.135064
2.891434
2.396577
-0.082326
-2.651168
0.442504
1.841950
1.966556
2.403893
2.924083
2.761248
-4.276187
-21.100134
-25.789027
-10.631330
-3.166013
2.950805
3.516880
3.699203
3.623602
3.466680
3.262321
2.155915
-4.172447
-8.951702
-4.659374
0.938083
1.610312
1.952999
2.835721
3.007610
-5.934116
-22.009488
-25.472698
-4.948435
1.181921
3.361828
3.703316
3.791733
3.708435
3.642660
3.561637
1.790660
-10.975895
-17.390163
-12.117009
-1.562607
1.539828
1.741530
1.863792
1.825427
-6.005933
-21.045744
-23.623931
-1.151307
1.788655
3.281967
3.716588
3.740611
3.643015
3.571986
3.260462
-2.523560
-19.787153
-26.753819
-20.649156
-6.119931
2.048114
2.354458
1.862327
0.766053
-4.741165
-18.468189
-20.677728
-0.446409
1.168556
2.945987
3.618785
3.583427
3.545885
3.501817
2.613126
-9.619598
-29.123252
-35.739987
-28.567105
-11.213618
2.556785
3.251930
2.404098
0.931908
-2.708289
-14.774203
-17.169505
-4.630272
-3.242320
-0.442779
2.030140
2.607215
3.141122
3.597518
2.194456
-18.053403
-37.809787
-43.359752
-34.742778
-14.891413
1.327785
2.658226
0.899198
-1.328535
-3.674077
-10.798007
-13.612571
-20.890624
-21.783648
-21.188142
-19.039530
-15.468037
-10.975320
-6.471958
-3.335814
-26.289075
-44.949434
-48.917777
-38.497569
-16.177716
-2.813226
-5.072446
-8.357254
-12.029769
-15.693945
-18.867984
-20.965028
-36.995513
-39.090595
-39.874422
-39.155673
-36.873032
-33.195411
-28.637377
-24.059959
-33.082229
-49.913112
-51.974988
-39.484411
-15.986359
-16.981041
-19.238077
-22.398716
-26.172651
-30.165772
-33.923974
-37.007396
-41.731466
-44.347892
-45.788814
-45.840360
-44.384751
-41.458352
-37.339444
-32.640760
-37.630243
-52.312869
-52.312789
-37.622083
-20.732303
-21.549612
-23.525152
-26.505245
-30.219219
-34.284958
-38.263284
-41.728291
SCALARS solution_1 double
LOOKUP_TABLE defaul
-9.887280
-6.379866
-2.880376
-0.343055
0.812614
1.360464
1.746580
-10.842414
-21.580448
-31.187195
-31.211759
-28.221926
-13.057350
-16.118968
-17.992470
-18.488968
-17.703172
-15.825378
-13.122367
-9.857005
-8.049660
-4.365307
-0.570557
1.700282
2.308950
2.528635
2.598274
-14.500195
-22.019469
-30.788184
-29.180250
-20.416302
-6.272638
-9.056145
-12.174312
-13.837285
-13.977862
-12.767929
-10.491386
-7.440028
-9.971324
-6.067942
2.509516
3.555356
3.672772
3.219144
2.364987
-5.692986
-20.822177
-28.030859
-24.974583
-11.717761
-0.447193
3.235680
0.734145
-2.140202
-3.688683
-3.845235
-2.967975
-1.124262
-5.545956
-3.909601
1.991317
4.554894
4.956522
4.729280
4.591481
-3.983529
-17.349640
-23.196290
-19.064939
-5.357165
4.817228
7.661300
7.869329
6.971284
4.673358
3.836399
2.568775
1.633628
-6.392640
-2.831070
2.192955
5.025992
5.274442
5.644014
3.717079
-0.323702
-11.976873
-16.830366
-12.194288
0.110688
7.444800
8.904873
9.218838
8.958599
7.895689
7.257897
5.146479
3.559905
-7.999437
-3.806837
2.397170
6.132283
5.606575
6.330175
5.476444
2.958587
-5.529790
-9.783994
-5.341451
3.182822
7.700402
9.147837
9.557945
9.358550
8.932728
8.132264
5.724225
4.373621
-8.782780
-3.963972
2.614666
5.788989
5.594972
6.105850
6.769609
4.097641
0.094018
-3.289588
0.355133
4.030294
7.621492
8.921157
9.392630
9.283269
9.122037
7.796457
3.321902
2.928036
-8.407240
-3.146206
2.974323
5.620789
6.144177
6.414599
5.995900
4.689059
2.860496
1.248361
3.309943
6.827302
8.172689
8.903525
9.141153
8.939208
8.935271
7.754047
3.576741
3.032137
-6.727210
-1.351641
3.145109
6.226373
6.722640
6.801958
5.600374
4.538318
2.131888
2.009784
3.433026
5.940885
7.452225
8.149170
8.016127
8.052261
8.215866
6.408966
2.937109
1.535438
-3.903537
0.821361
2.445485
5.618632
6.074463
6.049426
5.015352
3.795223
3.313146
1.828109
2.922545
4.021636
5.543880
6.094129
6.154452
6.458604
6.666182
2.644079
1.501061
-0.949699
-0.949699
1.501061
2.644079
6.666182
6.458604
6.154452
6.094129
5.543880
4.021636
2.922545
1.828109
3.313146
3.795223
5.015352
6.049426
6.074463
5.618632
2.445485
0.821361
-3.903537
1.535438
2.937109
6.408966
8.215866
8.052261
8.016127
8.149170
7.452225
5.940885
3.433026
2.009784
2.131888
4.538318
5.600374
6.801958
6.722640
6.226373
3.145109
-1.351641
-6.727210
3.032137
3.576741
7.754047
8.935271
8.939208
9.141153
8.903525
8.172689
6.827302
3.309943
1.248361
2.860496
4.689059
5.995900
6.414599
6.144177
5.620789
2.974323
-3.146206
-8.407240
2.928036
3.321902
7.796457
9.122037
9.283269
9.392630
8.921157
7.621492
4.030294
0.355133
-3.289588
0.094018
4.097641
6.769609
6.105850
5.594972
5.788989
2.614666
-3.963972
-8.782780
4.373621
5.724225
8.132264
8.932728
9.358550
9.557945
9.147837
7.700402
3.182822
-5.341451
-9.783994
-5.529790
2.958587
5.476444
6.330175
5.606575
6.132283
2.397170
-3.806837
-7.999437
3.559905
5.146479
7.257897
7.895689
8.958599
9.218838
8.904873
7.444800
0.110688
-12.194288
-16.830366
-11.976873
-0.323702
3.717079
5.644014
5.274442
5.025992
2.192955
-2.831070
-6.392640
1.633628
2.568775
3.836399
4.673358
6.971284
7.869329
7.661300
4.817228
-5.357165
-19.064939
-23.196290
-17.349640
-3.983529
4.591481
4.729280
4.956522
4.554894
1.991317
-3.909601
-5.545956
-1.124262
-2.967975
-3.845235
-3.688683
-2.140202
0.734145
3.235680
-0.447193
-11.717761
-24.974583
-28.030859
-20.822177
-5.692986
2.364987
3.219144
3.672772
3.555356
2.509516
-6.067942
-9.971324
-7.440028
-10.491386
-12.767929
-13.977862
-13.837285
-12.174312
-9.056145
-6.272638
-20.416302
-29.180250
-30.788184
-22.019469
-14.500195
2.598274
2.528635
2.308950
1.700282
-0.570557
-4.365307
-8.049660
-9.857005
-13.122367
-15.825378
-17.703172
-18.488968
-17.992470
-16.118968
-13.057350
-28.221926
-31.211759
-31.187195
-21.580448
-10.842414
1.746580
1.360464
0.812614
-0.343055
-2.880376
-6.379866
-9.887280
SCALARS solution_2 double
LOOKUP_TABLE defaul
-4.136660
-0.553767
2.886703
3.942642
5.650760
5.536084
3.674917
-1.936077
-19.950251
-22.294477
-24.621401
-20.554690
-10.728353
1.728566
2.657638
2.676688
2.666952
2.379538
-0.928624
-4.279618
-6.194093
-2.541605
2.788669
4.322143
6.403966
6.359641
3.972832
-4.603212
-15.336084
-16.242669
-17.688311
-16.821269
-4.519162
2.226186
3.295999
3.320708
3.144788
3.031113
1.340953
-1.496755
-2.272308
0.766375
4.981726
7.964707
8.487990
8.382967
5.591018
-0.907936
-3.527708
-8.387613
-6.687079
-1.159450
3.481669
4.225606
4.685653
5.236714
3.998506
3.021281
2.335597
0.621013
-1.978207
-0.073535
4.649896
8.040215
8.092036
8.103944
7.963376
3.352891
-1.100602
-4.716595
-2.347936
3.681466
7.922935
7.878770
8.708418
8.846642
7.330168
5.545708
5.311706
3.625125
2.030118
2.199176
4.963080
7.674508
7.923254
7.531804
8.472267
3.681275
2.391714
-0.398861
1.833571
6.414953
9.147767
9.293011
9.623645
9.449586
9.039195
7.932152
7.374309
5.295892
3.079947
3.673443
5.926195
8.163429
8.641312
8.030162
7.805043
4.934552
3.433063
3.136236
3.325927
6.495197
9.095453
9.622330
9.835154
9.730372
9.360732
8.874076
7.526030
5.591429
2.394164
3.360968
6.004061
6.684871
7.924410
8.343955
7.772531
6.991254
5.413575
3.865084
3.470151
7.901033
9.058449
9.615176
9.771005
9.733573
9.410309
9.270121
8.372975
6.836655
2.253681
3.858519
7.151481
7.429795
7.101363
6.845194
6.691826
6.025070
6.155444
5.153095
6.195185
7.396307
8.599392
9.254615
9.458417
9.616874
9.346612
8.880158
7.547310
5.512110
2.859617
4.211614
8.236387
8.946260
8.595167
7.837598
6.797485
4.735521
5.058892
4.501986
4.611540
6.603267
7.871133
8.540957
9.031853
9.077186
8.693737
8.028571
6.861323
5.725105
1.944254
2.921362
6.608368
8.057916
8.436501
8.318101
8.105746
7.235417
5.123613
3.607093
3.225830
5.998097
7.222885
8.020816
8.443771
8.277990
7.607680
6.509632
4.890712
2.815961
2.815961
4.890712
6.509632
7.607680
8.277990
8.443771
8.020816
7.222885
5.998097
3.225830
3.607093
5.123613
7.235417
8.105746
8.318101
8.436501
8.057916
6.608368
2.921362
1.944254
5.725105
6.861323
8.028571
8.693737
9.077186
9.031853
8.540957
7.871133
6.603267
4.611540
4.501986
5.058892
4.735521
6.797485
7.837598
8.595167
8.946260
8.236387
4.211614
2.859617
5.512110
7.547310
8.880158
9.346612
9.616874
9.458417
9.254615
8.599392
7.396307
6.195185
5.153095
6.155444
6.025070
6.691826
6.845194
7.101363
7.429795
7.151481
3.858519
2.253681
6.836655
8.372975
9.270121
9.410309
9.733573
9.771005
9.615176
9.058449
7.901033
3.470151
3.865084
5.413575
6.991254
7.772531
8.343955
7.924410
6.684871
6.004061
3.360968
2.394164
5.591429
7.526030
8.874076
9.360732
9.730372
9.835154
9.622330
9.095453
6.495197
3.325927
3.136236
3.433063
4.934552
7.805043
8.030162
8.641312
8.163429
5.926195
3.673443
3.079947
5.295892
7.374309
7.932152
9.039195
9.449586
9.623645
9.293011
9.147767
6.414953
1.833571
-0.398861
2.391714
3.681275
8.472267
7.531804
7.923254
7.674508
4.963080
2.199176
2.030118
3.625125
5.311706
5.545708
7.330168
8.846642
8.708418
7.878770
7.922935
3.681466
-2.347936
-4.716595
-1.100602
3.352891
7.963376
8.103944
8.092036
8.040215
4.649896
-0.073535
-1.978207
0.621013
2.335597
3.021281
3.998506
5.236714
4.685653
4.225606
3.481669
-1.159450
-6.687079
-8.387613
-3.527708
-0.907936
5.591018
8.382967
8.487990
7.964707
4.981726
0.766375
-2.272308
-1.496755
1.340953
3.031113
3.144788
3.320708
3.295999
2.226186
-4.519162
-16.821269
-17.688311
-16.242669
-15.336084
-4.603212
3.972832
6.359641
6.403966
4.322143
2.788669
-2.541605
-6.194093
-4.279618
-0.928624
2.379538
2.666952
2.676688
2.657638
1.728566
-10.728353
-20.554690
-24.621401
-22.294477
-19.950251
-1.936077
3.674917
5.536084
5.650760
3.942642
2.886703
-0.553767
-4.136660
SCALARS solution_3 double
LOOKUP_TABLE defaul
3.171106
4.343580
6.592573
8.288249
8.476997
8.161688
6.873182
1.943679
-3.876642
-10.626230
-10.729959
-8.613626
-2.061562
4.375927
4.159726
5.758813
7.026521
5.614728
3.597678
3.845073
1.760812
3.617776
7.494430
8.980121
9.281349
8.504279
7.046139
2.947224
-4.475186
-10.066308
-9.151571
-2.278493
1.887663
5.020369
4.263021
6.041031
7.030456
6.108538
3.391190
3.215983
1.560562
3.277826
6.838811
9.664948
10.350654
9.869036
9.767995
4.118000
-0.494100
0.453254
0.592461
1.660144
6.900008
8.388636
7.535464
7.612710
7.682401
8.390662
6.048383
4.570650
4.455535
3.996918
7.535791
10.692729
11.262335
11.250754
10.558257
7.731129
4.907357
4.786085
4.348397
5.552948
9.868637
12.242185
13.501061
12.663924
10.227000
9.196461
8.376143
8.057331
5.529749
4.781767
7.988010
11.654022
11.923383
11.824321
10.658100
8.155254
4.185563
4.476492
5.605821
8.594549
12.960884
14.809656
15.557825
14.897851
13.337073
11.917298
10.054732
8.429108
3.732509
4.784124
7.697146
11.220281
12.437863
12.492902
11.862756
8.480351
6.329342
4.492521
6.864974
9.155130
13.566783
15.353993
15.951913
15.444257
14.557818
13.184239
10.140384
8.112107
4.368295
6.068139
7.713600
11.233259
12.074675
12.681350
12.013976
9.861831
7.023207
7.658003
9.260649
9.450855
13.248502
15.118539
15.693260
15.377858
14.844326
13.270656
9.652150
7.849713
6.492276
6.952002
8.847872
11.064947
11.527604
12.111603
11.947412
10.080539
7.584056
6.960446
7.152464
11.472255
13.414587
14.877884
15.085129
14.897740
14.891720
13.533383
9.385220
8.305129
5.165085
7.219754
8.964972
11.644306
11.847857
12.042990
11.406541
9.343967
6.902732
7.012942
8.211022
10.297141
12.316482
13.622347
13.460430
13.371239
13.381965
11.309554
8.777340
7.698696
4.884683
6.229049
7.623017
11.325133
11.990432
11.845348
10.804947
9.149696
7.648593
6.159149
6.430282
8.830151
10.717075
11.586894
11.739524
11.751109
11.025464
8.083045
6.274092
6.086675
6.086675
6.274092
8.083045
11.025464
11.751109
11.739524
11.586894
10.717075
8.830151
6.430282
6.159149
7.648593
9.149696
10.804947
11.845348
11.990432
11.325133
7.623017
6.229049
4.884683
7.698696
8.777340
11.309554
13.381965
13.371239
13.460430
13.622347
12.316482
10.297141
8.211022
7.012942
6.902732
9.343967
11.406541
12.042990
11.847857
11.644306
8.964972
7.219754
5.165085
8.305129
9.385220
13.533383
14.891720
14.897740
15.085129
14.877884
13.414587
11.472255
7.152464
6.960446
7.584056
10.080539
11.947412
12.111603
11.527604
11.064947
8.847872
6.952002
6.492276
7.849713
9.652150
13.270656
14.844326
15.377858
15.693260
15.118539
13.248502
9.450855
9.260649
7.658003
7.023207
9.861831
12.013976
12.681350
12.074675
11.233259
7.713600
6.068139
4.368295
8.112107
10.140384
13.184239
14.557818
15.444257
15.951913
15.353993
13.566783
9.155130
6.864974
4.492521
6.329342
8.480351
11.862756
12.492902
12.437863
11.220281
7.697146
4.784124
3.732509
8.429108
10.054732
11.917298
13.337073
14.897851
15.557825
14.809656
12.960884
8.594549
5.605821
4.476492
4.185563
8.155254
10.658100
11.824321
11.923383
11.654022
7.988010
4.781767
5.529749
8.057331
8.376143
9.196461
10.227000
12.663924
13.501061
12.242185
9.868637
5.552948
4.348397
4.786085
4.907357
7.731129
10.558257
11.250754
11.262335
10.692729
7.535791
3.996918
4.455535
4.570650
6.048383
8.390662
7.682401
7.612710
7.535464
8.388636
6.900008
1.660144
0.592461
0.453254
-0.494100
4.118000
9.767995
9.869036
10.350654
9.664948
6.838811
3.277826
1.560562
3.215983
3.391190
6.108538
7.030456
6.041031
4.263021
5.020369
1.887663
-2.278493
-9.151571
-10.066308
-4.475186
2.947224
7.046139
8.504279
9.281349
8.980121
7.494430
3.617776
1.760812
3.845073
3.597678
5.614728
7.026521
5.758813
4.159726
4.375927
-2.061562
-8.613626
-10.729959
-10.626230
-3.876642
1.943679
6.873182
8.161688
8.476997
8.288249
6.592573
4.343580
3.171106
