# vtk DataFile Version 2.0
this shit
ASCII
DATASET POLYDATA
POINTS 40000 double
-3.141593 -3.141593 0.000000
-3.110019 -3.141593 0.000000
-3.078445 -3.141593 0.000000
-3.046871 -3.141593 0.000000
-3.015297 -3.141593 0.000000
-2.983724 -3.141593 0.000000
-2.952150 -3.141593 0.000000
-2.920576 -3.141593 0.000000
-2.889002 -3.141593 0.000000
-2.857428 -3.141593 0.000000
-2.825855 -3.141593 0.000000
-2.794281 -3.141593 0.000000
-2.762707 -3.141593 0.000000
-2.731133 -3.141593 0.000000
-2.699560 -3.141593 0.000000
-2.667986 -3.141593 0.000000
-2.636412 -3.141593 0.000000
-2.604838 -3.141593 0.000000
-2.573264 -3.141593 0.000000
-2.541691 -3.141593 0.000000
-2.510117 -3.141593 0.000000
-2.478543 -3.141593 0.000000
-2.446969 -3.141593 0.000000
-2.415395 -3.141593 0.000000
-2.383822 -3.141593 0.000000
-2.352248 -3.141593 0.000000
-2.320674 -3.141593 0.000000
-2.289100 -3.141593 0.000000
-2.257526 -3.141593 0.000000
-2.225953 -3.141593 0.000000
-2.194379 -3.141593 0.000000
-2.162805 -3.141593 0.000000
-2.131231 -3.141593 0.000000
-2.099657 -3.141593 0.000000
-2.068084 -3.141593 0.000000
-2.036510 -3.141593 0.000000
-2.004936 -3.141593 0.000000
-1.973362 -3.141593 0.000000
-1.941788 -3.141593 0.000000
-1.910215 -3.141593 0.000000
-1.878641 -3.141593 0.000000
-1.847067 -3.141593 0.000000
-1.815493 -3.141593 0.000000
-1.783919 -3.141593 0.000000
-1.752346 -3.141593 0.000000
-1.720772 -3.141593 0.000000
-1.689198 -3.141593 0.000000
-1.657624 -3.141593 0.000000
-1.626050 -3.141593 0.000000
-1.594477 -3.141593 0.000000
-1.562903 -3.141593 0.000000
-1.531329 -3.141593 0.000000
-1.499755 -3.141593 0.000000
-1.468181 -3.141593 0.000000
-1.436608 -3.141593 0.000000
-1.405034 -3.141593 0.000000
-1.373460 -3.141593 0.000000
-1.341886 -3.141593 0.000000
-1.310313 -3.141593 0.000000
-1.278739 -3.141593 0.000000
-1.247165 -3.141593 0.000000
-1.215591 -3.141593 0.000000
-1.184017 -3.141593 0.000000
-1.152444 -3.141593 0.000000
-1.120870 -3.141593 0.000000
-1.089296 -3.141593 0.000000
-1.057722 -3.141593 0.000000
-1.026148 -3.141593 0.000000
-0.994575 -3.141593 0.000000
-0.963001 -3.141593 0.000000
-0.931427 -3.141593 0.000000
-0.899853 -3.141593 0.000000
-0.868279 -3.141593 0.000000
-0.836706 -3.141593 0.000000
-0.805132 -3.141593 0.000000
-0.773558 -3.141593 0.000000
-0.741984 -3.141593 0.000000
-0.710410 -3.141593 0.000000
-0.678837 -3.141593 0.000000
-0.647263 -3.141593 0.000000
-0.615689 -3.141593 0.000000
-0.584115 -3.141593 0.000000
-0.552541 -3.141593 0.000000
-0.520968 -3.141593 0.000000
-0.489394 -3.141593 0.000000
-0.457820 -3.141593 0.000000
-0.426246 -3.141593 0.000000
-0.394672 -3.141593 0.000000
-0.363099 -3.141593 0.000000
-0.331525 -3.141593 0.000000
-0.299951 -3.141593 0.000000
-0.268377 -3.141593 0.000000
-0.236803 -3.141593 0.000000
-0.205230 -3.141593 0.000000
-0.173656 -3.141593 0.000000
-0.142082 -3.141593 0.000000
-0.110508 -3.141593 0.000000
-0.078934 -3.141593 0.000000
-0.047361 -3.141593 0.000000
-0.015787 -3.141593 0.000000
0.015787 -3.141593 0.000000
0.047361 -3.141593 0.000000
0.078934 -3.141593 0.000000
0.110508 -3.141593 0.000000
0.142082 -3.141593 0.000000
0.173656 -3.141593 0.000000
0.205230 -3.141593 0.000000
0.236803 -3.141593 0.000000
0.268377 -3.141593 0.000000
0.299951 -3.141593 0.000000
0.331525 -3.141593 0.000000
0.363099 -3.141593 0.000000
0.394672 -3.141593 0.000000
0.426246 -3.141593 0.000000
0.457820 -3.141593 0.000000
0.489394 -3.141593 0.000000
0.520968 -3.141593 0.000000
0.552541 -3.141593 0.000000
0.584115 -3.141593 0.000000
0.615689 -3.141593 0.000000
0.647263 -3.141593 0.000000
0.678837 -3.141593 0.000000
0.710410 -3.141593 0.000000
0.741984 -3.141593 0.000000
0.773558 -3.141593 0.000000
0.805132 -3.141593 0.000000
0.836706 -3.141593 0.000000
0.868279 -3.141593 0.000000
0.899853 -3.141593 0.000000
0.931427 -3.141593 0.000000
0.963001 -3.141593 0.000000
0.994575 -3.141593 0.000000
1.026148 -3.141593 0.000000
1.057722 -3.141593 0.000000
1.089296 -3.141593 0.000000
1.120870 -3.141593 0.000000
1.152444 -3.141593 0.000000
1.184017 -3.141593 0.000000
1.215591 -3.141593 0.000000
1.247165 -3.141593 0.000000
1.278739 -3.141593 0.000000
1.310313 -3.141593 0.000000
1.341886 -3.141593 0.000000
1.373460 -3.141593 0.000000
1.405034 -3.141593 0.000000
1.436608 -3.141593 0.000000
1.468181 -3.141593 0.000000
1.499755 -3.141593 0.000000
1.531329 -3.141593 0.000000
1.562903 -3.141593 0.000000
1.594477 -3.141593 0.000000
1.626050 -3.141593 0.000000
1.657624 -3.141593 0.000000
1.689198 -3.141593 0.000000
1.720772 -3.141593 0.000000
1.752346 -3.141593 0.000000
1.783919 -3.141593 0.000000
1.815493 -3.141593 0.000000
1.847067 -3.141593 0.000000
1.878641 -3.141593 0.000000
1.910215 -3.141593 0.000000
1.941788 -3.141593 0.000000
1.973362 -3.141593 0.000000
2.004936 -3.141593 0.000000
2.036510 -3.141593 0.000000
2.068084 -3.141593 0.000000
2.099657 -3.141593 0.000000
2.131231 -3.141593 0.000000
2.162805 -3.141593 0.000000
2.194379 -3.141593 0.000000
2.225953 -3.141593 0.000000
2.257526 -3.141593 0.000000
2.289100 -3.141593 0.000000
2.320674 -3.141593 0.000000
2.352248 -3.141593 0.000000
2.383822 -3.141593 0.000000
2.415395 -3.141593 0.000000
2.446969 -3.141593 0.000000
2.478543 -3.141593 0.000000
2.510117 -3.141593 0.000000
2.541691 -3.141593 0.000000
2.573264 -3.141593 0.000000
2.604838 -3.141593 0.000000
2.636412 -3.141593 0.000000
2.667986 -3.141593 0.000000
2.699560 -3.141593 0.000000
2.731133 -3.141593 0.000000
2.762707 -3.141593 0.000000
2.794281 -3.141593 0.000000
2.825855 -3.141593 0.000000
2.857428 -3.141593 0.000000
2.889002 -3.141593 0.000000
2.920576 -3.141593 0.000000
2.952150 -3.141593 0.000000
2.983724 -3.141593 0.000000
3.015297 -3.141593 0.000000
3.046871 -3.141593 0.000000
3.078445 -3.141593 0.000000
3.110019 -3.141593 0.000000
3.141593 -3.141593 0.000000
-3.141593 -3.110019 0.000000
-3.110019 -3.110019 0.000000
-3.078445 -3.110019 0.000000
-3.046871 -3.110019 0.000000
-3.015297 -3.110019 0.000000
-2.983724 -3.110019 0.000000
-2.952150 -3.110019 0.000000
-2.920576 -3.110019 0.000000
-2.889002 -3.110019 0.000000
-2.857428 -3.110019 0.000000
-2.825855 -3.110019 0.000000
-2.794281 -3.110019 0.000000
-2.762707 -3.110019 0.000000
-2.731133 -3.110019 0.000000
-2.699560 -3.110019 0.000000
-2.667986 -3.110019 0.000000
-2.636412 -3.110019 0.000000
-2.604838 -3.110019 0.000000
-2.573264 -3.110019 0.000000
-2.541691 -3.110019 0.000000
-2.510117 -3.110019 0.000000
-2.478543 -3.110019 0.000000
-2.446969 -3.110019 0.000000
-2.415395 -3.110019 0.000000
-2.383822 -3.110019 0.000000
-2.352248 -3.110019 0.000000
-2.320674 -3.110019 0.000000
-2.289100 -3.110019 0.000000
-2.257526 -3.110019 0.000000
-2.225953 -3.110019 0.000000
-2.194379 -3.110019 0.000000
-2.162805 -3.110019 0.000000
-2.131231 -3.110019 0.000000
-2.099657 -3.110019 0.000000
-2.068084 -3.110019 0.000000
-2.036510 -3.110019 0.000000
-2.004936 -3.110019 0.000000
-1.973362 -3.110019 0.000000
-1.941788 -3.110019 0.000000
-1.910215 -3.110019 0.000000
-1.878641 -3.110019 0.000000
-1.847067 -3.110019 0.000000
-1.815493 -3.110019 0.000000
-1.783919 -3.110019 0.000000
-1.752346 -3.110019 0.000000
-1.720772 -3.110019 0.000000
-1.689198 -3.110019 0.000000
-1.657624 -3.110019 0.000000
-1.626050 -3.110019 0.000000
-1.594477 -3.110019 0.000000
-1.562903 -3.110019 0.000000
-1.531329 -3.110019 0.000000
-1.499755 -3.110019 0.000000
-1.468181 -3.110019 0.000000
-1.436608 -3.110019 0.000000
-1.405034 -3.110019 0.000000
-1.373460 -3.110019 0.000000
-1.341886 -3.110019 0.000000
-1.310313 -3.110019 0.000000
-1.278739 -3.110019 0.000000
-1.247165 -3.110019 0.000000
-1.215591 -3.110019 0.000000
-1.184017 -3.110019 0.000000
-1.152444 -3.110019 0.000000
-1.120870 -3.110019 0.000000
-1.089296 -3.110019 0.000000
-1.057722 -3.110019 0.000000
-1.026148 -3.110019 0.000000
-0.994575 -3.110019 0.000000
-0.963001 -3.110019 0.000000
-0.931427 -3.110019 0.000000
-0.899853 -3.110019 0.000000
-0.868279 -3.110019 0.000000
-0.836706 -3.110019 0.000000
-0.805132 -3.110019 0.000000
-0.773558 -3.110019 0.000000
-0.741984 -3.110019 0.000000
-0.710410 -3.110019 0.000000
-0.678837 -3.110019 0.000000
-0.647263 -3.110019 0.000000
-0.615689 -3.110019 0.000000
-0.584115 -3.110019 0.000000
-0.552541 -3.110019 0.000000
-0.520968 -3.110019 0.000000
-0.489394 -3.110019 0.000000
-0.457820 -3.110019 0.000000
-0.426246 -3.110019 0.000000
-0.394672 -3.110019 0.000000
-0.363099 -3.110019 0.000000
-0.331525 -3.110019 0.000000
-0.299951 -3.110019 0.000000
-0.268377 -3.110019 0.000000
-0.236803 -3.110019 0.000000
-0.205230 -3.110019 0.000000
-0.173656 -3.110019 0.000000
-0.142082 -3.110019 0.000000
-0.110508 -3.110019 0.000000
-0.078934 -3.110019 0.000000
-0.047361 -3.110019 0.000000
-0.015787 -3.110019 0.000000
0.015787 -3.110019 0.000000
0.047361 -3.110019 0.000000
0.078934 -3.110019 0.000000
0.110508 -3.110019 0.000000
0.142082 -3.110019 0.000000
0.173656 -3.110019 0.000000
0.205230 -3.110019 0.000000
0.236803 -3.110019 0.000000
0.268377 -3.110019 0.000000
0.299951 -3.110019 0.000000
0.331525 -3.110019 0.000000
0.363099 -3.110019 0.000000
0.394672 -3.110019 0.000000
0.426246 -3.110019 0.000000
0.457820 -3.110019 0.000000
0.489394 -3.110019 0.000000
0.520968 -3.110019 0.000000
0.552541 -3.110019 0.000000
0.584115 -3.110019 0.000000
0.615689 -3.110019 0.000000
0.647263 -3.110019 0.000000
0.678837 -3.110019 0.000000
0.710410 -3.110019 0.000000
0.741984 -3.110019 0.000000
0.773558 -3.110019 0.000000
0.805132 -3.110019 0.000000
0.836706 -3.110019 0.000000
0.868279 -3.110019 0.000000
0.899853 -3.110019 0.000000
0.931427 -3.110019 0.000000
0.963001 -3.110019 0.000000
0.994575 -3.110019 0.000000
1.026148 -3.110019 0.000000
1.057722 -3.110019 0.000000
1.089296 -3.110019 0.000000
1.120870 -3.110019 0.000000
1.152444 -3.110019 0.000000
1.184017 -3.110019 0.000000
1.215591 -3.110019 0.000000
1.247165 -3.110019 0.000000
1.278739 -3.110019 0.000000
1.310313 -3.110019 0.000000
1.341886 -3.110019 0.000000
1.373460 -3.110019 0.000000
1.405034 -3.110019 0.000000
1.436608 -3.110019 0.000000
1.468181 -3.110019 0.000000
[...]
POINT_DATA 40000
SCALARS solution_0 double
LOOKUP_TABLE defaul
-5.700337
-5.574473
-5.428369
-5.274973
-5.131710
-5.015920
-4.937308
-4.892071
-4.864472
-4.834394
-4.784368
-4.702960
-4.585607
-4.434687
-4.259619
-4.076678
-3.906980
-3.770559
-3.677228
-3.620754
-3.582398
-3.540171
-3.476171
-3.379653
-3.247667
-3.085181
-2.905286
-2.728636
-2.579702
-2.477686
-2.425738
-2.408464
-2.400699
-2.378433
-2.324712
-2.231121
-2.097876
-1.934275
-1.759654
-1.602834
-1.495133
-1.454262
-1.471021
-1.515473
-1.554618
-1.563633
-1.528260
-1.443991
-1.315713
-1.158989
-1.002271
-0.885464
-0.844989
-0.887125
-0.981470
-1.084973
-1.163322
-1.195870
-1.173526
-1.096865
-0.976554
-0.836421
-0.717181
-0.670352
-0.726672
-0.865225
-1.033938
-1.186899
-1.295794
-1.346426
-1.334437
-1.263720
-1.148725
-1.033097
-1.238284
-1.860617
-2.499720
-3.120543
-3.723512
-4.312886
-4.892010
-5.461671
-6.020072
-6.563670
-7.088187
-7.589375
-8.063460
-8.507348
-8.918693
-9.295878
-9.637960
-9.944581
-10.215855
-10.452237
-10.654376
-10.822969
-10.958628
-11.061765
-11.132523
-11.170740
-11.175964
-11.147502
-11.084515
-10.986125
-10.851545
-10.680208
-10.471895
-10.226845
-9.945854
-9.630351
-9.282465
-8.905083
-8.501901
-8.077502
-7.637461
-7.188574
-6.739449
-6.302092
-5.895805
-5.553436
-5.319245
-5.219270
-5.236398
-5.330322
-5.462310
-5.603316
-5.734453
-5.845609
-5.933911
-6.002370
-6.058526
-6.112618
-6.174943
-6.252731
-6.347691
-6.455620
-6.568272
-6.676329
-6.772042
-6.850850
-6.912005
-6.958447
-6.996033
-7.032132
-7.073671
-7.125056
-7.186767
-7.255309
-7.324525
-7.387595
-7.438896
-7.475275
-7.496613
-7.505768
-7.507915
-7.509312
-7.515617
-7.530189
-7.552998
-7.580673
-7.607646
-7.627867
-7.636437
-7.630767
-7.611139
-7.580672
-7.544697
-7.509509
-7.480646
-7.461142
-7.450444
-7.444538
-7.437225
-7.421968
-7.393635
-7.349739
-7.291088
-7.221819
-7.148742
-7.079840
-7.021988
-6.978516
-6.947719
-6.923212
-6.895940
-6.856785
-6.798790
-6.718630
-6.617439
-6.501101
-6.379818
-6.266348
-6.172370
-6.103762
-6.057505
-6.022702
-5.984912
-5.930727
-5.850684
-5.740552
-5.835561
-5.713212
-5.570978
-5.420943
-5.279339
-5.162401
-5.079670
-5.028620
-4.995505
-4.961753
-4.910546
-4.830423
-4.716439
-4.570386
-4.400877
-4.223049
-4.056595
-3.920380
-3.824252
-3.763519
-3.721449
-3.677365
-3.613734
-3.519551
-3.391293
-3.233163
-3.057290
-2.883168
-2.734215
-2.629421
-2.573119
-2.551848
-2.541865
-2.519600
-2.467847
-2.377629
-2.248451
-2.088738
-1.916709
-1.759897
-1.648854
-1.602178
-1.613094
-1.653763
-1.691870
-1.702275
-1.670054
-1.589953
-1.466029
-1.312775
-1.157197
-1.037745
-0.990915
-1.025726
-1.114970
-1.216757
-1.296345
-1.332201
-1.314349
-1.242471
-1.126147
-0.987730
-0.866288
-0.813162
-0.862461
-0.997413
-1.166787
-1.323467
-1.437883
-1.494917
-1.489403
-1.424237
-1.312206
-1.192708
-1.375460
-1.994654
-2.630615
-3.246223
-3.842240
-4.423486
-4.993971
-5.555092
-6.105449
-6.641670
-7.159481
-7.654547
-8.122983
-8.561583
-8.967903
-9.340245
-9.677598
-9.979554
-10.246184
-10.477914
-10.675372
-10.839246
-10.970144
-11.068485
-11.134422
-11.167806
-11.168201
-11.134933
-11.067175
-10.964060
-10.824803
-10.648829
-10.435898
-10.186205
-9.900476
-9.580033
-9.226848
-8.843578
-8.433609
-8.001119
-7.551237
-7.090440
-6.627624
-6.176840
-5.763467
-5.431431
-5.228331
-5.161501
-5.198814
-5.301929
-5.438290
-5.582749
-5.717958
-5.834044
-5.927800
-6.001704
-6.062752
-6.120766
-6.185898
-6.265587
-6.362045
-6.471645
-6.586551
-6.697580
-6.796872
-6.879599
-6.944690
-6.994773
-7.035472
-7.074068
-7.117571
-7.170637
-7.234075
-7.304679
-7.376445
-7.442542
-7.497213
-7.537089
-7.561821
-7.574062
-7.578856
-7.582439
-7.590578
-7.606841
-7.631445
-7.661213
-7.690666
-7.713717
-7.725338
-7.722751
-7.706035
-7.678139
-7.644289
-7.610785
-7.583291
-7.565063
-7.555793
-7.551649
-7.546497
-7.533742
-7.508091
-7.466833
-7.410534
-7.343109
-7.271223
-7.202855
-7.145058
-7.101498
-7.070860
-7.047065
-7.021197
-6.984098
-6.928633
-6.851195
-6.752551
-6.638145
-6.517707
-6.403613
-6.307494
-6.235699
-6.186111
-6.148776
-6.109865
-6.056178
-5.978151
-5.871270
-5.939770
-5.820807
-5.682316
-5.535599
-5.395879
-5.278500
-5.192897
-5.137592
-5.100483
-5.064294
-5.012738
-4.934268
-4.823508
-4.681633
-4.516482
-4.342264
-4.177701
-4.041082
-3.942630
-3.878966
-3.834796
-3.790252
-3.727873
-3.636264
-3.511284
-3.356400
-3.182913
-3.009504
-2.859104
-2.751060
-2.691013
-2.667016
-2.656167
-2.634920
-2.585619
-2.498653
-2.372814
-2.215711
-2.044629
-1.886252
-1.771010
-1.718810
-1.725065
-1.763405
-1.801686
-1.814220
-1.785351
-1.709081
-1.588659
-1.437578
-1.281629
-1.158320
-1.104834
-1.133032
-1.218369
-1.319552
-1.401132
-1.440634
-1.427228
-1.359749
-1.246742
-1.109126
-0.984326
-0.923449
-0.964070
-1.093950
-1.262852
-1.422333
-1.541482
-1.604301
-1.605006
-1.545883
-1.438744
-1.319423
-1.469663
-2.081275
-2.715999
-3.330418
-3.924713
-4.503433
-5.070470
-5.627276
-6.172640
-6.703439
-7.215633
-7.705083
-8.168036
-8.601373
-9.002688
-9.370287
-9.703135
-10.000774
-10.263216
-10.490814
-10.684126
-10.843774
-10.970314
-11.064134
-11.125374
-11.153902
-11.149314
-11.110987
-11.038155
-10.930010
-10.785823
-10.605053
-10.387466
-10.133229
-9.842986
-9.517915
-9.159752
-8.770807
-8.353966
-7.912725
-7.451329
-6.975258
-6.492684
-6.018775
-5.587157
-5.263823
-5.102072
-5.074900
-5.134254
-5.247125
-5.388070
-5.536007
-5.675161
-5.795892
-5.894650
-5.973395
-6.038633
-6.099866
-6.167216
-6.248422
-6.346228
-6.457541
-6.574848
-6.689005
-6.791963
-6.878588
-6.947475
-7.000962
-7.044491
-7.085312
-7.130588
-7.185266
-7.250495
-7.323329
-7.397862
-7.467197
-7.525393
-7.568842
-7.596960
-7.612212
-7.619542
-7.625207
-7.635120
-7.653087
-7.679572
-7.711575
-7.743666
-7.769689
-7.784453
-7.784977
-7.771137
-7.745720
-7.713869
-7.681913
-7.655665
-7.638621
-7.630721
-7.628311
-7.625313
-7.615056
-7.592076
-7.553437
-7.499455
-7.433820
-7.363043
-7.295080
-7.237147
-7.193241
-7.162455
-7.139058
-7.114316
-7.079070
-7.026034
-6.951337
-6.855384
-6.743172
-6.623920
-6.509555
-6.411547
-6.336621
-6.283544
-6.243374
-6.203016
-6.149568
-6.073407
-5.969732
-6.015555
-5.899794
-5.764654
-5.620765
-5.482607
-5.364996
-5.277501
-5.219575
-5.180371
-5.143493
-5.092897
-5.016782
-4.909248
-4.770815
-4.608602
-4.436108
-4.271560
-4.133301
-4.032375
-3.966642
-3.921752
-3.878093
-3.817904
-3.729209
-3.607190
-3.454594
-3.282010
-3.107574
-2.954194
-2.842072
-2.778374
-2.752430
-2.741712
-2.722308
-2.675899
-2.592163
-2.469166
-2.313746
-2.142382
-1.981180
-1.860870
-1.803014
-1.805175
-1.842070
-1.881344
-1.896546
-1.871219
-1.798618
-1.681205
-1.531531
-1.374294
-1.246290
-1.185659
-1.207229
-1.288974
-1.389940
-1.473789
-1.517044
-1.508034
-1.444804
-1.334931
-1.197949
-1.069513
-0.999969
-1.029886
-1.152112
-1.318235
-1.478717
-1.601243
-1.668893
-1.675353
-1.622570
-1.521944
-1.406854
-1.523726
-2.123397
-2.758459
-3.375233
-3.972492
-4.553781
-5.122182
-5.678700
-6.222094
-6.749521
-7.257360
-7.741894
-8.199725
-8.627992
-9.024456
-9.387508
-9.716130
-10.009827
-10.268534
-10.492504
-10.682184
-10.838090
-10.960690
-11.050312
-11.107075
-11.130858
-11.121308
-11.077876
-10.999888
-10.886636
-10.737476
-10.551935
-10.329808
-10.071243
-9.776804
-9.447507
-9.084829
-8.690691
-8.267417
-7.817707
-7.344690
-6.852276
-6.346508
-5.840571
-5.374474
-5.057510
-4.951710
-4.966659
-5.046251
-5.167696
-5.312817
-5.464117
-5.607074
-5.732114
-5.835288
-5.918054
-5.986508
-6.049960
-6.118653
-6.200751
-6.299585
-6.412560
-6.532386
-6.649841
-6.756593
-6.847142
-6.919730
-6.976422
-7.022519
-7.065299
-7.112139
-7.168330
-7.235379
-7.310580
-7.388081
-7.460866
-7.522761
-7.569894
-7.601433
-7.619662
-7.629451
-7.637108
-7.648729
-7.668380
-7.696786
-7.731114
-7.765962
-7.795073
-7.813071
-7.816755
-7.805793
-7.782809
-7.752873
-7.722353
-7.697232
-7.681255
-7.674627
-7.673879
-7.672988
-7.665206
-7.644897
-7.608891
-7.557251
-7.493431
-7.423767
-7.356172
-7.297997
-7.253564
-7.222394
-7.199140
-7.175300
-7.141755
-7.091089
-7.019178
-6.926069
-6.816304
-6.698582
-6.584346
-6.484847
-6.407109
-6.350735
-6.307807
-6.266014
-6.212792
-6.138473
-6.037952
-6.065603
-5.952829
-5.820409
-5.678431
-5.540955
-5.422745
-5.333884
-5.274779
-5.235453
-5.199873
-5.151823
-5.078994
-4.974837
-4.839177
-4.678467
-4.505700
-4.339026
-4.197443
-4.093321
-4.025833
-3.981189
-3.939510
-3.882336
-3.796912
-3.677666
-3.526636
-3.353780
-3.176866
-3.019092
-2.901912
-2.834268
-2.806689
-2.796695
-2.779689
-2.736497
-2.656009
-2.535562
-2.381249
-2.208816
-2.043933
-1.917844
-1.853999
-1.852176
-1.888018
-1.928719
-1.946900
-1.925238
-1.856235
-1.741597
-1.592977
-1.434039
-1.300915
-1.232711
-1.247257
-1.325136
-1.425725
-1.511728
-1.558617
-1.553886
-1.494834
-1.388157
-1.252081
-1.120381
-1.041979
-1.059504
-1.171209
-1.331693
-1.490887
-1.615083
-1.686360
-1.697878
-1.651412
-1.558377
-1.450931
-1.543868
-2.129870
-2.766749
-3.388846
-3.992839
-4.580656
-5.154076
-5.713351
-6.257107
-6.782818
-7.287408
-7.767731
-8.220884
-8.644385
-9.036248
-9.395004
-9.719684
-10.009766
-10.265103
-10.485831
-10.672267
-10.824800
-10.943798
-11.029519
-11.082055
-11.101306
-11.086975
-11.038603
-10.955625
-10.837444
-10.683515
-10.493440
-10.267050
-10.004478
-9.706208
-9.373108
-9.006417
-8.607713
-8.178843
-7.721836
-7.238838
-6.732194
-6.205097
-5.664859
-5.144499
-4.828882
-4.794246
-4.844211
-4.937583
-5.064502
-5.212708
-5.367109
-5.513746
-5.642787
-5.749767
-5.835656
-5.906228
-5.970745
-6.039732
-6.121931
-6.221337
-6.335834
-6.458259
-6.579187
-6.689893
-6.784445
-6.860704
-6.920467
-6.968923
-7.013431
-7.061638
-7.119230
-7.188098
-7.265772
-7.346419
-7.422856
-7.488636
-7.539589
-7.574624
-7.595846
-7.608058
-7.617646
-7.630910
-7.652209
-7.682542
-7.719245
-7.756933
-7.789231
-7.810555
-7.817469
-7.809422
-7.788872
-7.760814
-7.731662
-7.707571
-7.692555
-7.687098
-7.687933
-7.689100
-7.683781
-7.666163
-7.632840
-7.583613
-7.521687
-7.453210
-7.386026
-7.327607
-7.282588
-7.250928
-7.227700
-7.204664
-7.172768
-7.124478
-7.055414
-6.965267
-6.858127
-6.742188
-6.628427
-6.527884
-6.447850
-6.388700
-6.343485
-6.300638
-6.247912
-6.175559
-6.078135
-6.092229
-5.982237
-5.851750
-5.710444
-5.572294
-5.452536
-5.362271
-5.302995
-5.265283
-5.232913
-5.189010
-5.120467
-5.019951
-4.886564
-4.726133
-4.551285
-4.380398
-4.233616
-4.125142
-4.055664
-4.011720
-3.972720
-3.919150
-3.837278
-3.720720
-3.570806
-3.396903
-3.216500
-3.053241
-2.930075
-2.857963
-2.828677
-2.819616
-2.805269
-2.765462
-2.688237
-2.570195
-2.416709
-2.242828
-2.073826
-1.941518
-1.871331
-1.865368
-1.900193
-1.942441
-1.963704
-1.945740
-1.880294
-1.768340
-1.620680
-1.459981
-1.321675
-1.245676
-1.252736
-1.326206
-1.425957
-1.513757
-1.564005
-1.563347
-1.508377
-1.404990
-1.270217
-1.135951
-1.049172
-1.053461
-1.152286
-1.304379
-1.459937
-1.583994
-1.657550
-1.673190
-1.632597
-1.547525
-1.450342
-1.539109
-2.116258
-2.756144
-3.385344
-3.998120
-4.594418
-5.174526
-5.737909
-6.283092
-6.807919
-7.309904
-7.786517
-8.235391
-8.654455
-9.042001
-9.396720
-9.717698
-10.004390
-10.256567
-10.474249
-10.657624
-10.806961
-10.922533
-11.004541
-11.053064
-11.068030
-11.049207
-10.996229
-10.908633
-10.785926
-10.627651
-10.433468
-10.203226
-9.937030
-9.635290
-9.298744
-8.928459
-8.525791
-8.092317
-7.629732
-7.139737
-6.623961
-6.084096
-5.523051
-4.956327
-4.634081
-4.650976
-4.713775
-4.809814
-4.937334
-5.086886
-5.243970
-5.394203
-5.527024
-5.637288
-5.725469
-5.797101
-5.861530
-5.929729
-6.011168
-6.110609
-6.226422
-6.351489
-6.476059
-6.590907
-6.689594
-6.769564
-6.832344
-6.883030
-6.929097
-6.978508
-7.037394
-7.108064
-7.188287
-7.272233
-7.352511
-7.422365
-7.477300
-7.515944
-7.540218
-7.554863
-7.566352
-7.581214
-7.604121
-7.636369
-7.675474
-7.716068
-7.751642
-7.776392
-7.786630
-7.781571
-7.763500
-7.737329
-7.709519
-7.686404
-7.672279
-7.667926
-7.670296
-7.673509
-7.670678
-7.655811
-7.625255
-7.578542
-7.518621
-7.451442
-7.384774
-7.326198
-7.280666
-7.248581
-7.225445
-7.203293
-7.173134
-7.127309
-7.061170
-6.974040
-6.869577
-6.755513
-6.642433
-6.541238
-6.459512
-6.398347
-6.351650
-6.308477
-6.256788
-6.186678
-6.092307
-6.096947
-5.989599
-5.860236
-5.718220
-5.577735
-5.454996
-5.362679
-5.303645
-5.268786
-5.241166
-5.202765
-5.139396
-5.042834
-4.911441
-4.750447
-4.572174
-4.395372
-4.241629
-4.127419
-4.055254
-4.011931
-3.975848
-3.926150
-3.847975
-3.734075
-3.585076
-3.409773
-3.225381
-3.056005
-2.926167
-2.849017
-2.817700
-2.809465
-2.797777
-2.761366
-2.687385
-2.571692
-2.418960
-2.243561
-2.070363
-1.931698
-1.854943
-1.844606
-1.878268
-1.921999
-1.946310
-1.932002
-1.870055
-1.760733
-1.614031
-1.451668
-1.308338
-1.224572
-1.223864
-1.292448
-1.390894
-1.480105
-1.533391
-1.536543
-1.485463
-1.385323
-1.252091
-1.115921
-1.021661
-1.012938
-1.097746
-1.239563
-1.389636
-1.511996
-1.586517
-1.605128
-1.569401
-1.491655
-1.406378
-1.521711
-2.103754
-2.747018
-3.382917
-4.003769
-4.607633
-5.193488
-5.760201
-6.306295
-6.829995
-7.329354
-7.802390
-8.247208
-8.662089
-9.045565
-9.396455
-9.713885
-9.997276
-10.246321
-10.460936
-10.641200
-10.787290
-10.899413
-10.977742
-11.022366
-11.033255
-11.010250
-10.953068
-10.861337
-10.734636
-10.572560
-10.374790
-10.141157
-9.871716
-9.566792
-9.227025
-8.853385
-8.447160
-8.009924
-7.543481
-7.049828
-6.531229
-5.990752
-5.434989
-4.893833
-4.568183
-4.536360
-4.578544
-4.663014
-4.784952
-4.933576
-5.092785
-5.246570
-5.383075
-5.496268
-5.586100
-5.657923
-5.721272
-5.787700
-5.867556
-5.966482
-6.083370
-6.211090
-6.339463
-6.458662
-6.561664
-6.645461
-6.711293
-6.764169
-6.811702
-6.862208
-6.922301
-6.994748
-7.077579
-7.164954
-7.249253
-7.323376
-7.382471
-7.424872
-7.452297
-7.469427
-7.482822
-7.499259
-7.523743
-7.557894
-7.599428
-7.642995
-7.681947
-7.710242
-7.723924
-7.721961
-7.706449
-7.682215
-7.655762
-7.633613
-7.620359
-7.617102
-7.621029
-7.626345
-7.626094
-7.614089
-7.586423
-7.542346
-7.484545
-7.418779
-7.352751
-7.294170
-7.248316
-7.216041
-7.193264
-7.172274
-7.144106
-7.100934
-7.037812
-6.953687
-6.851806
-6.739506
-6.627107
-6.525503
-6.442658
-6.380348
-6.333191
-6.290669
-6.240777
-6.173321
-6.081988
-6.080164
-5.975432
-5.846514
-5.702501
-5.557970
-5.430519
-5.334959
-5.275899
-5.244457
-5.222532
-5.190537
-5.132968
-5.040643
-4.911193
-4.749265
-4.566865
-4.383091
-4.221049
-4.099756
-4.023891
-3.980639
-3.947250
-3.901351
-3.826846
-3.715590
-3.567507
-3.390818
-3.202428
-3.026814
-2.889993
-2.807359
-2.773593
-2.765888
-2.756677
-2.723552
-2.652749
-2.539383
-2.387437
-2.210622
-2.033381
-1.888471
-1.805121
-1.790278
-1.822649
-1.867782
-1.895081
-1.884362
-1.825828
-1.719042
-1.573235
-1.409244
-1.261062
-1.169731
-1.161310
-1.224909
-1.321896
-1.412350
-1.468475
-1.475186
-1.427697
-1.330502
-1.198652
-1.060829
-0.960001
-0.939475
-1.010874
-1.142224
-1.286227
-1.406139
-1.480704
-1.501056
-1.468484
-1.395852
-1.322548
-1.508893
-2.112596
-2.758790
-3.398546
-4.023827
-4.631498
-5.219723
-5.787057
-6.332110
-6.853425
-7.349461
-7.818627
-8.259349
-8.670144
-9.049686
-9.396854
-9.710771
-9.990808
-10.236579
-10.447916
-10.624821
-10.767417
-10.875887
-10.950411
-10.991118
-10.998039
-10.971090
-10.910064
-10.814647
-10.684458
-10.519100
-10.318223
-10.081598
-9.809192
-9.501238
-9.158299
-8.781319
-8.371657
-7.931118
-7.462001
-6.967233
-6.450795
-5.919126
-5.386215
-4.894580
-4.562613
-4.444168
-4.437299
-4.495679
-4.605244
-4.750333
-4.911003
-5.068333
-5.208559
-5.324538
-5.415653
-5.487099
-5.548655
-5.612551
-5.690137
-5.788054
-5.905778
-6.036150
-6.168483
-6.292256
-6.399798
-6.487605
-6.556609
-6.611726
-6.660712
-6.712258
-6.773502
-6.847709
-6.933198
-7.024125
-7.112620
-7.191214
-7.254672
-7.301003
-7.331714
-7.351411
-7.366748
-7.384757
-7.410806
-7.446867
-7.490874
-7.537507
-7.579969
-7.611964
-7.629246
-7.630517
-7.617675
-7.595453
-7.570402
-7.549249
-7.536903
-7.534808
-7.540402
-7.547974
-7.550479
-7.541520
-7.516906
-7.475596
-7.420015
-7.355746
-7.290467
-7.232052
-7.186144
-7.154053
-7.132089
-7.112731
-7.086970
-7.046744
-6.986759
-6.905565
-6.806026
-6.695177
-6.583220
-6.481234
-6.397697
-6.335074
-6.288539
-6.247766
-6.200549
-6.136243
-6.047985
-6.041081
-5.939065
-5.810176
-5.663211
-5.513175
-5.379259
-5.278877
-5.218862
-5.190636
-5.174640
-5.149387
-5.097896
-5.010000
-4.882627
-4.719854
-4.533319
-4.342319
-4.171314
-4.041901
-3.961229
-3.917152
-3.885845
-3.843368
-3.772339
-3.663692
-3.516652
-3.338857
-3.146851
-2.965335
-2.821641
-2.733343
-2.696791
-2.689292
-2.682317
-2.652322
-2.584609
-2.473539
-2.322416
-2.144302
-1.963214
-1.812280
-1.722499
-1.703253
-1.734430
-1.781064
-1.811420
-1.804288
-1.749069
-1.644627
-1.499461
-1.333608
-1.180499
-1.081795
-1.066091
-1.125234
-1.221249
-1.313281
-1.372372
-1.382523
-1.338245
-1.243375
-1.112166
-0.972202
-0.865253
-0.834756
-0.895302
-1.018457
-1.157980
-1.276333
-1.351072
-1.372326
-1.340626
-1.268639
-1.204366
-1.520513
-2.152497
-2.800917
-3.440744
-4.065476
-4.671866
-5.257918
-5.822198
-6.363479
-6.880543
-7.372092
-7.836742
-8.273070
-8.679676
-9.055260
-9.398679
-9.708996
-9.985506
-10.227746
-10.435479
-10.608664
-10.747408
-10.851908
-10.922388
-10.959042
-10.961978
-10.931187
-10.866522
-10.767709
-10.634367
-10.466064
-10.262377
-10.022976
-9.747713
-9.436717
-9.090484
-8.709977
-8.296709
-7.852856
-7.381421
-6.886556
-6.374296
-5.854421
-5.345374
-4.885995
-4.542827
-4.352970
-4.284367
-4.304865
-4.395496
-4.534359
-4.695784
-4.856684
-5.000796
-5.119644
-5.211979
-5.282831
-5.342237
-5.403141
-5.477979
-5.574507
-5.692874
-5.825908
-5.962362
-6.090953
-6.203300
-6.295358
-6.367725
-6.425208
-6.475700
-6.528283
-6.590651
-6.666614
-6.754816
-6.849422
-6.942303
-7.025589
-7.093632
-7.144095
-7.178250
-7.200617
-7.217948
-7.237544
-7.265165
-7.303167
-7.349732
-7.399571
-7.445728
-7.481628
-7.502710
-7.507387
-7.497344
-7.477220
-7.453631
-7.433529
-7.422176
-7.421385
-7.428854
-7.438942
-7.444484
-7.438829
-7.417474
-7.379066
-7.325774
-7.263034
-7.198553
-7.140447
-7.094778
-7.063332
-7.042770
-7.025670
-7.002871
-6.965979
-6.909283
-6.830911
-6.733369
-6.623484
-6.511507
-6.408915
-6.324881
-6.262603
-6.217675
-6.179705
-6.136040
-6.075412
-5.990318
-5.977828
-5.878743
-5.749808
-5.599454
-5.442993
-5.301166
-5.194249
-5.131802
-5.105846
-5.095276
-5.076520
-5.031024
-4.947631
-4.822601
-4.659456
-4.469404
-4.271729
-4.091907
-3.953888
-3.867448
-3.821499
-3.791414
-3.751769
-3.683899
-3.577799
-3.431981
-3.253495
-3.058467
-2.871694
-2.721595
-2.627786
-2.588358
-2.580902
-2.576026
-2.549073
-2.484390
-2.375567
-2.225219
-2.045773
-1.860855
-1.704007
-1.608041
-1.584797
-1.615295
-1.663929
-1.697713
-1.694346
-1.642394
-1.540000
-1.394942
-1.226540
-1.067906
-0.961730
-0.939447
-0.995451
-1.091905
-1.186637
-1.249369
-1.263137
-1.221714
-1.128249
-0.996264
-0.852646
-0.739048
-0.700453
-0.754496
-0.874650
-1.014295
-1.134555
-1.211655
-1.234465
-1.202001
-1.124475
-1.061400
-1.568014
-2.220224
-2.869537
-3.506418
-4.126527
-4.727319
-5.307208
-5.865090
-6.400007
-6.910944
-7.396740
-7.856078
-8.287540
-8.689686
-9.061133
-9.400642
-9.707167
-9.979907
-10.218316
-10.422102
-10.591202
-10.725734
-10.825935
-10.892097
-10.924493
-10.923315
-10.888627
-10.820333
-10.718173
-10.581747
-10.410558
-10.204085
-9.961875
-9.683653
-9.369434
-9.019654
-8.635302
-8.218059
-7.770486
-7.296285
-6.800758
-6.291675
-5.780974
-5.287932
-4.843180
-4.485639
-4.241286
-4.111040
-4.086467
-4.152673
-4.282834
-4.444355
-4.608902
-4.757180
-4.879188
-4.972978
-5.043372
-5.100635
-5.158416
-5.230275
-5.325188
-5.444084
-5.579824
-5.720586
-5.854268
-5.971724
-6.068322
-6.144295
-6.204315
-6.256407
-6.310050
-6.373532
-6.451257
-6.542243
-6.640680
-6.738165
-6.826399
-6.899283
-6.954103
-6.991874
-7.017022
-7.036398
-7.057599
-7.086811
-7.126818
-7.176075
-7.229328
-7.279438
-7.319516
-7.344649
-7.352934
-7.345832
-7.327894
-7.305817
-7.286826
-7.276579
-7.277296
-7.286940
-7.299912
-7.308874
-7.306865
-7.289023
-7.253656