# vtk DataFile Version 2.0
MyTitle
ASCII
DATASET UNSTRUCTURED_GRID
POINTS 449 double
0.000000 0.000000 0.000000
1.000000 0.000000 0.000000
1.000000 1.000000 0.000000
0.000000 1.000000 0.000000
0.420000 0.420000 0.000000
0.580000 0.420000 0.000000
0.580000 0.580000 0.000000
0.420000 0.580000 0.000000
0.358579 0.358579 0.000000
0.641421 0.358579 0.000000
0.641421 0.641421 0.000000
0.358579 0.641421 0.000000
0.250000 0.000000 0.000000
0.500000 0.000000 0.000000
0.750000 0.000000 0.000000
0.125000 0.000000 0.000000
0.375000 0.000000 0.000000
0.625000 0.000000 0.000000
0.875000 0.000000 0.000000
1.000000 0.250000 0.000000
1.000000 0.500000 0.000000
1.000000 0.750000 0.000000
1.000000 0.125000 0.000000
1.000000 0.375000 0.000000
1.000000 0.625000 0.000000
1.000000 0.875000 0.000000
0.750000 1.000000 0.000000
0.500000 1.000000 0.000000
0.250000 1.000000 0.000000
0.875000 1.000000 0.000000
0.625000 1.000000 0.000000
0.375000 1.000000 0.000000
0.125000 1.000000 0.000000
0.000000 0.750000 0.000000
0.000000 0.500000 0.000000
0.000000 0.250000 0.000000
0.000000 0.875000 0.000000
0.000000 0.625000 0.000000
0.000000 0.375000 0.000000
0.000000 0.125000 0.000000
0.460000 0.420000 0.000000
0.500000 0.420000 0.000000
0.540000 0.420000 0.000000
0.440000 0.420000 0.000000
0.480000 0.420000 0.000000
0.520000 0.420000 0.000000
0.560000 0.420000 0.000000
0.580000 0.460000 0.000000
0.580000 0.500000 0.000000
0.580000 0.540000 0.000000
0.580000 0.440000 0.000000
0.580000 0.480000 0.000000
0.580000 0.520000 0.000000
0.580000 0.560000 0.000000
0.540000 0.580000 0.000000
0.500000 0.580000 0.000000
0.460000 0.580000 0.000000
0.560000 0.580000 0.000000
0.520000 0.580000 0.000000
0.480000 0.580000 0.000000
0.440000 0.580000 0.000000
0.420000 0.540000 0.000000
0.420000 0.500000 0.000000
0.420000 0.460000 0.000000
0.420000 0.560000 0.000000
0.420000 0.520000 0.000000
0.420000 0.480000 0.000000
0.420000 0.440000 0.000000
0.423464 0.315225 0.000000
0.500000 0.300001 0.000000
0.576536 0.315225 0.000000
0.388886 0.333706 0.000000
0.460982 0.303843 0.000000
0.539018 0.303843 0.000000
0.611114 0.333706 0.000000
0.684775 0.423464 0.000000
0.699999 0.500000 0.000000
0.684775 0.576536 0.000000
0.666294 0.388886 0.000000
0.696157 0.460982 0.000000
0.696157 0.539018 0.000000
0.666294 0.611114 0.000000
0.576536 0.684775 0.000000
0.500000 0.699999 0.000000
0.423464 0.684775 0.000000
0.611114 0.666294 0.000000
0.539018 0.696157 0.000000
0.460982 0.696157 0.000000
0.388886 0.666294 0.000000
0.315225 0.576536 0.000000
0.300001 0.500000 0.000000
0.315225 0.423464 0.000000
0.333706 0.611114 0.000000
0.303843 0.539018 0.000000
0.303843 0.460982 0.000000
0.333706 0.388886 0.000000
0.404645 0.404645 0.000000
0.389290 0.389290 0.000000
0.373934 0.373934 0.000000
0.412322 0.412322 0.000000
0.396967 0.396967 0.000000
0.381612 0.381612 0.000000
0.366257 0.366257 0.000000
0.595355 0.404645 0.000000
0.610710 0.389290 0.000000
0.626066 0.373934 0.000000
0.587678 0.412322 0.000000
0.603033 0.396967 0.000000
0.618388 0.381612 0.000000
0.633743 0.366257 0.000000
0.595355 0.595355 0.000000
0.610710 0.610710 0.000000
0.626066 0.626066 0.000000
0.587678 0.587678 0.000000
0.603033 0.603033 0.000000
0.618388 0.618388 0.000000
0.633743 0.633743 0.000000
0.404645 0.595355 0.000000
0.389290 0.610710 0.000000
0.373934 0.626066 0.000000
0.412322 0.587678 0.000000
0.396967 0.603033 0.000000
0.381612 0.618388 0.000000
0.366257 0.633743 0.000000
0.268934 0.268934 0.000000
0.179290 0.179290 0.000000
0.089645 0.089645 0.000000
0.313757 0.313757 0.000000
0.224112 0.224112 0.000000
0.134467 0.134467 0.000000
0.044822 0.044822 0.000000
0.731066 0.268934 0.000000
0.820710 0.179290 0.000000
0.910355 0.089645 0.000000
0.686243 0.313757 0.000000
0.775888 0.224112 0.000000
0.865533 0.134467 0.000000
0.955178 0.044822 0.000000
0.731066 0.731066 0.000000
0.820710 0.820710 0.000000
0.910355 0.910355 0.000000
0.686243 0.686243 0.000000
0.775888 0.775888 0.000000
0.865533 0.865533 0.000000
0.955178 0.955178 0.000000
0.268934 0.731066 0.000000
0.179290 0.820710 0.000000
0.089645 0.910355 0.000000
0.313757 0.686243 0.000000
0.224112 0.775888 0.000000
0.134467 0.865533 0.000000
0.044822 0.955178 0.000000
0.500000 0.500000 0.000000
0.500000 0.460000 0.000000
0.460000 0.500000 0.000000
0.460000 0.460000 0.000000
0.540000 0.500000 0.000000
0.540000 0.460000 0.000000
0.500000 0.540000 0.000000
0.540000 0.540000 0.000000
0.460000 0.540000 0.000000
0.460000 0.440000 0.000000
0.440000 0.460000 0.000000
0.500000 0.440000 0.000000
0.480000 0.460000 0.000000
0.500000 0.480000 0.000000
0.480000 0.500000 0.000000
0.460000 0.480000 0.000000
0.440000 0.500000 0.000000
0.540000 0.440000 0.000000
0.520000 0.460000 0.000000
0.560000 0.460000 0.000000
0.560000 0.500000 0.000000
0.540000 0.480000 0.000000
0.520000 0.500000 0.000000
0.540000 0.520000 0.000000
0.520000 0.540000 0.000000
0.500000 0.520000 0.000000
0.560000 0.540000 0.000000
0.540000 0.560000 0.000000
0.500000 0.560000 0.000000
0.460000 0.520000 0.000000
0.440000 0.540000 0.000000
0.480000 0.540000 0.000000
0.460000 0.560000 0.000000
0.500000 0.379450 0.000000
0.444645 0.384370 0.000000
0.500000 0.399725 0.000000
0.452322 0.402185 0.000000
0.500000 0.339725 0.000000
0.434054 0.349797 0.000000
0.555355 0.384370 0.000000
0.565946 0.349797 0.000000
0.547678 0.402185 0.000000
0.428484 0.403415 0.000000
0.456161 0.411092 0.000000
0.416967 0.386830 0.000000
0.448484 0.393277 0.000000
0.472322 0.381910 0.000000
0.500000 0.389588 0.000000
0.476161 0.400955 0.000000
0.500000 0.409863 0.000000
0.403994 0.361866 0.000000
0.439349 0.367084 0.000000
0.428759 0.332511 0.000000
0.500000 0.319863 0.000000
0.467027 0.344761 0.000000
0.500000 0.359588 0.000000
0.532973 0.344761 0.000000
0.560651 0.367084 0.000000
0.527678 0.381910 0.000000
0.571241 0.332511 0.000000
0.596006 0.361866 0.000000
0.583033 0.386830 0.000000
0.523839 0.400955 0.000000
0.543839 0.411092 0.000000
0.551516 0.393277 0.000000
0.571516 0.403415 0.000000
0.620550 0.500000 0.000000
0.615630 0.444645 0.000000
0.600275 0.500000 0.000000
0.597815 0.452322 0.000000
0.660275 0.500000 0.000000
0.650203 0.434054 0.000000
0.615630 0.555355 0.000000
0.650203 0.565946 0.000000
0.597815 0.547678 0.000000
0.596585 0.428484 0.000000
0.588908 0.456161 0.000000
0.613170 0.416967 0.000000
0.606723 0.448484 0.000000
0.618090 0.472322 0.000000
0.610412 0.500000 0.000000
0.599045 0.476161 0.000000
0.590137 0.500000 0.000000
0.638134 0.403994 0.000000
0.632916 0.439349 0.000000
0.667489 0.428759 0.000000
0.680137 0.500000 0.000000
0.655239 0.467027 0.000000
0.640412 0.500000 0.000000
0.655239 0.532973 0.000000
0.632916 0.560651 0.000000
0.618090 0.527678 0.000000
0.667489 0.571241 0.000000
0.638134 0.596006 0.000000
0.613170 0.583033 0.000000
0.599045 0.523839 0.000000
0.588908 0.543839 0.000000
0.606723 0.551516 0.000000
0.596585 0.571516 0.000000
0.500000 0.620550 0.000000
0.555355 0.615630 0.000000
0.500000 0.600275 0.000000
0.547678 0.597815 0.000000
0.500000 0.660275 0.000000
0.565946 0.650203 0.000000
0.444645 0.615630 0.000000
0.434054 0.650203 0.000000
0.452322 0.597815 0.000000
0.571516 0.596585 0.000000
0.543839 0.588908 0.000000
0.583033 0.613170 0.000000
0.551516 0.606723 0.000000
0.527678 0.618090 0.000000
0.500000 0.610412 0.000000
0.523839 0.599045 0.000000
0.500000 0.590137 0.000000
0.596006 0.638134 0.000000
0.560651 0.632916 0.000000
0.571241 0.667489 0.000000
0.500000 0.680137 0.000000
0.532973 0.655239 0.000000
0.500000 0.640412 0.000000
0.467027 0.655239 0.000000
0.439349 0.632916 0.000000
0.472322 0.618090 0.000000
0.428759 0.667489 0.000000
0.403994 0.638134 0.000000
0.416967 0.613170 0.000000
0.476161 0.599045 0.000000
0.456161 0.588908 0.000000
0.448484 0.606723 0.000000
0.428484 0.596585 0.000000
0.379450 0.500000 0.000000
0.384370 0.555355 0.000000
0.399725 0.500000 0.000000
0.402185 0.547678 0.000000
0.339725 0.500000 0.000000
0.349797 0.565946 0.000000
0.384370 0.444645 0.000000
0.349797 0.434054 0.000000
0.402185 0.452322 0.000000
0.403415 0.571516 0.000000
0.411092 0.543839 0.000000
0.386830 0.583033 0.000000
0.393277 0.551516 0.000000
0.381910 0.527678 0.000000
0.389588 0.500000 0.000000
0.400955 0.523839 0.000000
0.409863 0.500000 0.000000
0.361866 0.596006 0.000000
0.367084 0.560651 0.000000
0.332511 0.571241 0.000000
0.319863 0.500000 0.000000
0.344761 0.532973 0.000000
0.359588 0.500000 0.000000
0.344761 0.467027 0.000000
0.367084 0.439349 0.000000
0.381910 0.472322 0.000000
0.332511 0.428759 0.000000
0.361866 0.403994 0.000000
0.386830 0.416967 0.000000
0.400955 0.476161 0.000000
0.411092 0.456161 0.000000
0.393277 0.448484 0.000000
0.403415 0.428484 0.000000
0.500000 0.169450 0.000000
0.339645 0.174370 0.000000
0.500000 0.234725 0.000000
0.381554 0.244797 0.000000
0.500000 0.084725 0.000000
0.294822 0.087185 0.000000
0.660355 0.174370 0.000000
0.705178 0.087185 0.000000
0.618446 0.244797 0.000000
0.325244 0.256866 0.000000
0.402509 0.280011 0.000000
0.259467 0.176830 0.000000
0.360599 0.209584 0.000000
0.419822 0.171910 0.000000
0.500000 0.202088 0.000000
0.440777 0.239761 0.000000
0.500000 0.267363 0.000000
0.192234 0.088415 0.000000
0.317234 0.130777 0.000000
0.272411 0.043592 0.000000
0.500000 0.042363 0.000000
0.397411 0.085955 0.000000
0.500000 0.127088 0.000000
0.602589 0.085955 0.000000
0.682766 0.130777 0.000000
0.580178 0.171910 0.000000
0.727589 0.043592 0.000000
0.807766 0.088415 0.000000
0.740533 0.176830 0.000000
0.559223 0.239761 0.000000
0.597491 0.280011 0.000000
0.639401 0.209584 0.000000
0.674756 0.256866 0.000000
0.830550 0.500000 0.000000
0.825630 0.339645 0.000000
0.765275 0.500000 0.000000
0.755203 0.381554 0.000000
0.915275 0.500000 0.000000
0.912815 0.294822 0.000000
0.825630 0.660355 0.000000
0.912815 0.705178 0.000000
0.755203 0.618446 0.000000
0.743134 0.325244 0.000000
0.719989 0.402509 0.000000
0.823170 0.259467 0.000000
0.790416 0.360599 0.000000
0.828090 0.419822 0.000000
0.797912 0.500000 0.000000
0.760239 0.440777 0.000000
0.732637 0.500000 0.000000
0.911585 0.192234 0.000000
0.869223 0.317234 0.000000
0.956408 0.272411 0.000000
0.957637 0.500000 0.000000
0.914045 0.397411 0.000000
0.872912 0.500000 0.000000
0.914045 0.602589 0.000000
0.869223 0.682766 0.000000
0.828090 0.580178 0.000000
0.956408 0.727589 0.000000
0.911585 0.807766 0.000000
0.823170 0.740533 0.000000
0.760239 0.559223 0.000000
0.719989 0.597491 0.000000
0.790416 0.639401 0.000000
0.743134 0.674756 0.000000
0.500000 0.830550 0.000000
0.660355 0.825630 0.000000
0.500000 0.765275 0.000000
0.618446 0.755203 0.000000
0.500000 0.915275 0.000000
0.705178 0.912815 0.000000
0.339645 0.825630 0.000000
0.294822 0.912815 0.000000
0.381554 0.755203 0.000000
0.674756 0.743134 0.000000
0.597491 0.719989 0.000000
0.740533 0.823170 0.000000
0.639401 0.790416 0.000000
0.580178 0.828090 0.000000
0.500000 0.797912 0.000000
0.559223 0.760239 0.000000
0.500000 0.732637 0.000000
0.807766 0.911585 0.000000
0.682766 0.869223 0.000000
0.727589 0.956408 0.000000
0.500000 0.957637 0.000000
0.602589 0.914045 0.000000
0.500000 0.872912 0.000000
0.397411 0.914045 0.000000
0.317234 0.869223 0.000000
0.419822 0.828090 0.000000
0.272411 0.956408 0.000000
0.192234 0.911585 0.000000
0.259467 0.823170 0.000000
0.440777 0.760239 0.000000
0.402509 0.719989 0.000000
0.360599 0.790416 0.000000
0.325244 0.743134 0.000000
0.169450 0.500000 0.000000
0.174370 0.660355 0.000000
0.234725 0.500000 0.000000
0.244797 0.618446 0.000000
0.084725 0.500000 0.000000
0.087185 0.705178 0.000000
0.174370 0.339645 0.000000
0.087185 0.294822 0.000000
0.244797 0.381554 0.000000
0.256866 0.674756 0.000000
0.280011 0.597491 0.000000
0.176830 0.740533 0.000000
0.209584 0.639401 0.000000
0.171910 0.580178 0.000000
0.202088 0.500000 0.000000
0.239761 0.559223 0.000000
0.267363 0.500000 0.000000
0.088415 0.807766 0.000000
0.130777 0.682766 0.000000
0.043592 0.727589 0.000000
0.042363 0.500000 0.000000
0.085955 0.602589 0.000000
0.127088 0.500000 0.000000
0.085955 0.397411 0.000000
0.130777 0.317234 0.000000
0.171910 0.419822 0.000000
0.043592 0.272411 0.000000
0.088415 0.192234 0.000000
0.176830 0.259467 0.000000
0.239761 0.440777 0.000000
0.280011 0.402509 0.000000
0.209584 0.360599 0.000000
0.256866 0.325244 0.000000
CELLS 144 1296
8 4 40 155 63 43 161 162 67
8 40 41 153 155 44 163 164 161
8 155 153 152 154 164 165 166 167
8 63 155 154 62 162 167 168 66
8 41 42 157 153 45 169 170 163
8 42 5 47 157 46 50 171 169
8 157 47 48 156 171 51 172 173
8 153 157 156 152 170 173 174 165
8 152 156 159 158 174 175 176 177
8 156 48 49 159 172 52 178 175
8 159 49 6 54 178 53 57 179
8 158 159 54 55 176 179 58 180
8 62 154 160 61 168 181 182 65
8 154 152 158 160 166 177 183 181
8 160 158 55 56 183 180 59 184
8 61 160 56 7 182 184 60 64
8 4 96 188 40 99 194 195 43
8 96 97 186 188 100 196 197 194
8 188 186 185 187 197 198 199 200
8 40 188 187 41 195 200 201 44
8 97 98 190 186 101 202 203 196
8 98 8 68 190 102 71 204 202
8 190 68 69 189 204 72 205 206
8 186 190 189 185 203 206 207 198
8 185 189 192 191 207 208 209 210
8 189 69 70 192 205 73 211 208
8 192 70 9 105 211 74 109 212
8 191 192 105 104 209 212 108 213
8 41 187 193 42 201 214 215 45
8 187 185 191 193 199 210 216 214
8 193 191 104 103 216 213 107 217
8 42 193 103 5 215 217 106 46
8 5 103 221 47 106 227 228 50
8 103 104 219 221 107 229 230 227
8 221 219 218 220 230 231 232 233
8 47 221 220 48 228 233 234 51
8 104 105 223 219 108 235 236 229
8 105 9 75 223 109 78 237 235
8 223 75 76 222 237 79 238 239
8 219 223 222 218 236 239 240 231
8 218 222 225 224 240 241 242 243
8 222 76 77 225 238 80 244 241
8 225 77 10 112 244 81 116 245
8 224 225 112 111 242 245 115 246
8 48 220 226 49 234 247 248 52
8 220 218 224 226 232 243 249 247
8 226 224 111 110 249 246 114 250
8 49 226 110 6 248 250 113 53
8 6 110 254 54 113 260 261 57
8 110 111 252 254 114 262 263 260
8 254 252 251 253 263 264 265 266
8 54 254 253 55 261 266 267 58
8 111 112 256 252 115 268 269 262
8 112 10 82 256 116 85 270 268
8 256 82 83 255 270 86 271 272
8 252 256 255 251 269 272 273 264
8 251 255 258 257 273 274 275 276
8 255 83 84 258 271 87 277 274
8 258 84 11 119 277 88 123 278
8 257 258 119 118 275 278 122 279
8 55 253 259 56 267 280 281 59
8 253 251 257 259 265 276 282 280
8 259 257 118 117 282 279 121 283
8 56 259 117 7 281 283 120 60
8 7 117 287 61 120 293 294 64
8 117 118 285 287 121 295 296 293
8 287 285 284 286 296 297 298 299
8 61 287 286 62 294 299 300 65
8 118 119 289 285 122 301 302 295
8 119 11 89 289 123 92 303 301
8 289 89 90 288 303 93 304 305
8 285 289 288 284 302 305 306 297
8 284 288 291 290 306 307 308 309
8 288 90 91 291 304 94 310 307
8 291 91 8 98 310 95 102 311
8 290 291 98 97 308 311 101 312
8 62 286 292 63 300 313 314 66
8 286 284 290 292 298 309 315 313
8 292 290 97 96 315 312 100 316
8 63 292 96 4 314 316 99 67
8 8 124 320 68 127 326 327 71
8 124 125 318 320 128 328 329 326
8 320 318 317 319 329 330 331 332
8 68 320 319 69 327 332 333 72
8 125 126 322 318 129 334 335 328
8 126 0 12 322 130 15 336 334
8 322 12 13 321 336 16 337 338
8 318 322 321 317 335 338 339 330
8 317 321 324 323 339 340 341 342
8 321 13 14 324 337 17 343 340
8 324 14 1 133 343 18 137 344
8 323 324 133 132 341 344 136 345
8 69 319 325 70 333 346 347 73
8 319 317 323 325 331 342 348 346
8 325 323 132 131 348 345 135 349
8 70 325 131 9 347 349 134 74
8 9 131 353 75 134 359 360 78
8 131 132 351 353 135 361 362 359
8 353 351 350 352 362 363 364 365
8 75 353 352 76 360 365 366 79
8 132 133 355 351 136 367 368 361
8 133 1 19 355 137 22 369 367
8 355 19 20 354 369 23 370 371
8 351 355 354 350 368 371 372 363
8 350 354 357 356 372 373 374 375
8 354 20 21 357 370 24 376 373
8 357 21 2 140 376 25 144 377
8 356 357 140 139 374 377 143 378
8 76 352 358 77 366 379 380 80
8 352 350 356 358 364 375 381 379
8 358 356 139 138 381 378 142 382
8 77 358 138 10 380 382 141 81
8 10 138 386 82 141 392 393 85
8 138 139 384 386 142 394 395 392
8 386 384 383 385 395 396 397 398
8 82 386 385 83 393 398 399 86
8 139 140 388 384 143 400 401 394
8 140 2 26 388 144 29 402 400
8 388 26 27 387 402 30 403 404
8 384 388 387 383 401 404 405 396
8 383 387 390 389 405 406 407 408
8 387 27 28 390 403 31 409 406
8 390 28 3 147 409 32 151 410
8 389 390 147 146 407 410 150 411
8 83 385 391 84 399 412 413 87
8 385 383 389 391 397 408 414 412
8 391 389 146 145 414 411 149 415
8 84 391 145 11 413 415 148 88
8 11 145 419 89 148 425 426 92
8 145 146 417 419 149 427 428 425
8 419 417 416 418 428 429 430 431
8 89 419 418 90 426 431 432 93
8 146 147 421 417 150 433 434 427
8 147 3 33 421 151 36 435 433
8 421 33 34 420 435 37 436 437
8 417 421 420 416 434 437 438 429
8 416 420 423 422 438 439 440 441
8 420 34 35 423 436 38 442 439
8 423 35 0 126 442 39 130 443
8 422 423 126 125 440 443 129 444
8 90 418 424 91 432 445 446 94
8 418 416 422 424 430 441 447 445
8 424 422 125 124 447 444 128 448
8 91 424 124 8 446 448 127 95
CELL_TYPES 144
23
23
23
23
23
23
23
23
23
23
23
23
23
23
23
23
23
23
23
23
23
23
23
23
23
23
23
23
23
23
23
23
23
23
23
23
23
23
23
23
23
23
23
23
23
23
23
23
23
23
23
23
23
23
23
23
23
23
23
23
23
23
23
23
23
23
23
23
23
23
23
23
23
23
23
23
23
23
23
23
23
23
23
23
23
23
23
23
23
23
23
23
23
23
23
23
23
23
23
23
23
23
23
23
23
23
23
23
23
23
23
23
23
23
23
23
23
23
23
23
23
23
23
23
23
23
23
23
23
23
23
23
23
23
23
23
23
23
23
23
23
23
23
23
POINT_DATA 449
VECTORS sol double
+0.000000 +0.000000 0
+0.000000 +0.000000 0
+0.000000 +0.000000 0
+0.000000 +0.000000 0
-1.896214 +0.645070 0
-1.896214 +0.645070 0
-1.896214 +0.645070 0
-1.896214 +0.645070 0
-0.565059 +0.192227 0
-0.565059 +0.192227 0
-0.565059 +0.192227 0
-0.565059 +0.192227 0
+0.000000 +0.000000 0
+0.000000 +0.000000 0
+0.000000 +0.000000 0
+0.000000 +0.000000 0
+0.000000 +0.000000 0
+0.000000 +0.000000 0
+0.000000 +0.000000 0
+0.000000 +0.000000 0
+0.000000 +0.000000 0
+0.000000 +0.000000 0
+0.000000 +0.000000 0
+0.000000 +0.000000 0
+0.000000 +0.000000 0
+0.000000 +0.000000 0
+0.000000 +0.000000 0
+0.000000 +0.000000 0
+0.000000 +0.000000 0
+0.000000 +0.000000 0
+0.000000 +0.000000 0
+0.000000 +0.000000 0
+0.000000 +0.000000 0
+0.000000 +0.000000 0
+0.000000 +0.000000 0
+0.000000 +0.000000 0
+0.000000 +0.000000 0
+0.000000 +0.000000 0
+0.000000 +0.000000 0
+0.000000 +0.000000 0
-2.180582 +0.741809 0
-2.279733 +0.775539 0
-2.180582 +0.741809 0
-2.059603 +0.700653 0
-2.254722 +0.767031 0
-2.254722 +0.767031 0
-2.059603 +0.700653 0
-2.180582 +0.741809 0
-2.279733 +0.775539 0
-2.180582 +0.741809 0
-2.059603 +0.700653 0
-2.254722 +0.767031 0
-2.254722 +0.767031 0
-2.059603 +0.700653 0
-2.180582 +0.741809 0
-2.279733 +0.775539 0
-2.180582 +0.741809 0
-2.059603 +0.700653 0
-2.254722 +0.767031 0
-2.254722 +0.767031 0
-2.059603 +0.700653 0
-2.180582 +0.741809 0
-2.279733 +0.775539 0
-2.180582 +0.741809 0
-2.059603 +0.700653 0
-2.254722 +0.767031 0
-2.254722 +0.767031 0
-2.059603 +0.700653 0
-0.616129 +0.209600 0
-0.666254 +0.226652 0
-0.616129 +0.209600 0
-0.587735 +0.199941 0
-0.653734 +0.222393 0
-0.653734 +0.222393 0
-0.587735 +0.199941 0
-0.616129 +0.209600 0
-0.666254 +0.226652 0
-0.616129 +0.209600 0
-0.587735 +0.199941 0
-0.653734 +0.222393 0
-0.653734 +0.222393 0
-0.587735 +0.199941 0
-0.616129 +0.209600 0
-0.666254 +0.226652 0
-0.616129 +0.209600 0
-0.587735 +0.199941 0
-0.653734 +0.222393 0
-0.653734 +0.222393 0
-0.587735 +0.199941 0
-0.616129 +0.209600 0
-0.666254 +0.226652 0
-0.616129 +0.209600 0
-0.587735 +0.199941 0
-0.653734 +0.222393 0
-0.653734 +0.222393 0
-0.587735 +0.199941 0
-1.597453 +0.543435 0
-1.269848 +0.431988 0
-0.923550 +0.314181 0
-1.751007 +0.595673 0
-1.436735 +0.488761 0
-1.098082 +0.373555 0
-0.744913 +0.253411 0
-1.597453 +0.543435 0
-1.269848 +0.431988 0
-0.923550 +0.314181 0
-1.751007 +0.595673 0
-1.436735 +0.488761 0
-1.098082 +0.373555 0
-0.744913 +0.253411 0
-1.597453 +0.543435 0
-1.269848 +0.431988 0
-0.923550 +0.314181 0
-1.751007 +0.595673 0
-1.436735 +0.488761 0
-1.098082 +0.373555 0
-0.744913 +0.253411 0
-1.597453 +0.543435 0
-1.269848 +0.431988 0
-0.923550 +0.314181 0
-1.751007 +0.595673 0
-1.436735 +0.488761 0
-1.098082 +0.373555 0
-0.744913 +0.253411 0
+1.148236 -0.390617 0
+1.404692 -0.477860 0
+0.541656 -0.184265 0
+0.402944 -0.137077 0
+1.480268 -0.503570 0
+1.055312 -0.359005 0
+0.160931 -0.054747 0
+1.148236 -0.390617 0
+1.404692 -0.477860 0
+0.541656 -0.184265 0
+0.402944 -0.137077 0
+1.480268 -0.503570 0
+1.055312 -0.359005 0
+0.160931 -0.054747 0
+1.148236 -0.390617 0
+1.404692 -0.477860 0
+0.541656 -0.184265 0
+0.402944 -0.137077 0
+1.480268 -0.503570 0
+1.055312 -0.359005 0
+0.160931 -0.054747 0
+1.148236 -0.390617 0
+1.404692 -0.477860 0
+0.541656 -0.184265 0
+0.402944 -0.137077 0
+1.480268 -0.503570 0
+1.055312 -0.359005 0
+0.160931 -0.054747 0
-2.686778 +0.914011 0
-2.581647 +0.878247 0
-2.581647 +0.878247 0
-2.477994 +0.842985 0
-2.581647 +0.878247 0
-2.477994 +0.842985 0
-2.581647 +0.878247 0
-2.477994 +0.842985 0
-2.477994 +0.842985 0
-2.351768 +0.800045 0
-2.351768 +0.800045 0
-2.453470 +0.834643 0
-2.555579 +0.869379 0
-2.660319 +0.905010 0
-2.660319 +0.905010 0
-2.555579 +0.869379 0
-2.453470 +0.834643 0
-2.351768 +0.800045 0
-2.555579 +0.869379 0
-2.351768 +0.800045 0
-2.453470 +0.834643 0
-2.555579 +0.869379 0
-2.660319 +0.905010 0
-2.555579 +0.869379 0
-2.555579 +0.869379 0
-2.660319 +0.905010 0
-2.351768 +0.800045 0
-2.351768 +0.800045 0
-2.453470 +0.834643 0
-2.555579 +0.869379 0
-2.351768 +0.800045 0
-2.555579 +0.869379 0
-2.351768 +0.800045 0
-1.812063 +0.616443 0
-1.699420 +0.578123 0
-2.062969 +0.701799 0
-1.955077 +0.665095 0
-1.254594 +0.426799 0
-1.174064 +0.399403 0
-1.699420 +0.578123 0
-1.174064 +0.399403 0
-1.955077 +0.665095 0
-1.803906 +0.613668 0
-2.071932 +0.704848 0
-1.518740 +0.516658 0
-1.830555 +0.622734 0
-1.799592 +0.612201 0
-1.941200 +0.660374 0
-2.042683 +0.694898 0
-2.175949 +0.740233 0
-1.092309 +0.371591 0
-1.443467 +0.491051 0
-0.895744 +0.304722 0
-0.959471 +0.326401 0
-1.270713 +0.432282 0
-1.541641 +0.524449 0
-1.270713 +0.432282 0
-1.443467 +0.491051 0
-1.799592 +0.612201 0
-0.895744 +0.304722 0
-1.092309 +0.371591 0
-1.518740 +0.516658 0
-2.042683 +0.694898 0
-2.071932 +0.704848 0
-1.830555 +0.622734 0
-1.803906 +0.613668 0
-1.812063 +0.616443 0
-1.699420 +0.578123 0
-2.062969 +0.701799 0
-1.955077 +0.665095 0
-1.254594 +0.426799 0
-1.174064 +0.399403 0
-1.699420 +0.578123 0
-1.174064 +0.399403 0
-1.955077 +0.665095 0
-1.803906 +0.613668 0
-2.071932 +0.704848 0
-1.518740 +0.516658 0
-1.830555 +0.622734 0
-1.799592 +0.612201 0
-1.941200 +0.660374 0
-2.042683 +0.694898 0
-2.175949 +0.740233 0
-1.092309 +0.371591 0
-1.443467 +0.491051 0
-0.895744 +0.304722 0
-0.959471 +0.326401 0
-1.270713 +0.432282 0
-1.541641 +0.524449 0
-1.270713 +0.432282 0
-1.443467 +0.491051 0
-1.799592 +0.612201 0
-0.895744 +0.304722 0
-1.092309 +0.371591 0
-1.518740 +0.516658 0
-2.042683 +0.694898 0
-2.071932 +0.704848 0
-1.830555 +0.622734 0
-1.803906 +0.613668 0
-1.812063 +0.616443 0
-1.699420 +0.578123 0
-2.062969 +0.701799 0
-1.955077 +0.665095 0
-1.254594 +0.426799 0
-1.174064 +0.399403 0
-1.699420 +0.578123 0
-1.174064 +0.399403 0
-1.955077 +0.665095 0
-1.803906 +0.613668 0
-2.071932 +0.704848 0
-1.518740 +0.516658 0
-1.830555 +0.622734 0
-1.799592 +0.612201 0
-1.941200 +0.660374 0
-2.042683 +0.694898 0
-2.175949 +0.740233 0
-1.092309 +0.371591 0
-1.443467 +0.491051 0
-0.895744 +0.304722 0
-0.959471 +0.326401 0
-1.270713 +0.432282 0
-1.541641 +0.524449 0
-1.270713 +0.432282 0
-1.443467 +0.491051 0
-1.799592 +0.612201 0
-0.895744 +0.304722 0
-1.092309 +0.371591 0
-1.518740 +0.516658 0
-2.042683 +0.694898 0
-2.071932 +0.704848 0
-1.830555 +0.622734 0
-1.803906 +0.613668 0
-1.812063 +0.616443 0
-1.699420 +0.578123 0
-2.062969 +0.701799 0
-1.955077 +0.665095 0
-1.254594 +0.426799 0
-1.174064 +0.399403 0
-1.699420 +0.578123 0
-1.174064 +0.399403 0
-1.955077 +0.665095 0
-1.803906 +0.613668 0
-2.071932 +0.704848 0
-1.518740 +0.516658 0
-1.830555 +0.622734 0
-1.799592 +0.612201 0
-1.941200 +0.660374 0
-2.042683 +0.694898 0
-2.175949 +0.740233 0
-1.092309 +0.371591 0
-1.443467 +0.491051 0
-0.895744 +0.304722 0
-0.959471 +0.326401 0
-1.270713 +0.432282 0
-1.541641 +0.524449 0
-1.270713 +0.432282 0
-1.443467 +0.491051 0
-1.799592 +0.612201 0
-0.895744 +0.304722 0
-1.092309 +0.371591 0
-1.518740 +0.516658 0
-2.042683 +0.694898 0
-2.071932 +0.704848 0
-1.830555 +0.622734 0
-1.803906 +0.613668 0
+0.665385 -0.226356 0
+1.126666 -0.383279 0
+0.180821 -0.061513 0
+0.518675 -0.176447 0
+0.606303 -0.206257 0
+0.910426 -0.309717 0
+1.126666 -0.383279 0
+0.910426 -0.309717 0
+0.518675 -0.176447 0
+0.826491 -0.281163 0
-0.013095 +0.004455 0
+1.424863 -0.484722 0
+0.902855 -0.307141 0
+0.797965 -0.271459 0
+0.475313 -0.161696 0
+0.242304 -0.082429 0
-0.213740 +0.072712 0
+0.921434 -0.313461 0
+1.143542 -0.389020 0
+0.512859 -0.174469 0
+0.340971 -0.115995 0
+0.720191 -0.245001 0
+0.724613 -0.246505 0
+0.720191 -0.245001 0
+1.143542 -0.389020 0
+0.797965 -0.271459 0
+0.512859 -0.174469 0
+0.921434 -0.313461 0
+1.424863 -0.484722 0
+0.242304 -0.082429 0
-0.013095 +0.004455 0
+0.902855 -0.307141 0
+0.826491 -0.281163 0
+0.665385 -0.226356 0
+1.126666 -0.383279 0
+0.180821 -0.061513 0
+0.518675 -0.176447 0
+0.606303 -0.206257 0
+0.910426 -0.309717 0
+1.126666 -0.383279 0
+0.910426 -0.309717 0
+0.518675 -0.176447 0
+0.826491 -0.281163 0
-0.013095 +0.004455 0
+1.424863 -0.484722 0
+0.902855 -0.307141 0
+0.797965 -0.271459 0
+0.475313 -0.161696 0
+0.242304 -0.082429 0
-0.213740 +0.072712 0
+0.921434 -0.313461 0
+1.143542 -0.389020 0
+0.512859 -0.174469 0
+0.340971 -0.115995 0
+0.720191 -0.245001 0
+0.724613 -0.246505 0
+0.720191 -0.245001 0
+1.143542 -0.389020 0
+0.797965 -0.271459 0
+0.512859 -0.174469 0
+0.921434 -0.313461 0
+1.424863 -0.484722 0
+0.242304 -0.082429 0
-0.013095 +0.004455 0
+0.902855 -0.307141 0
+0.826491 -0.281163 0
+0.665385 -0.226356 0
+1.126666 -0.383279 0
+0.180821 -0.061513 0
+0.518675 -0.176447 0
+0.606303 -0.206257 0
+0.910426 -0.309717 0
+1.126666 -0.383279 0
+0.910426 -0.309717 0
+0.518675 -0.176447 0
+0.826491 -0.281163 0
-0.013095 +0.004455 0
+1.424863 -0.484722 0
+0.902855 -0.307141 0
+0.797965 -0.271459 0
+0.475313 -0.161696 0
+0.242304 -0.082429 0
-0.213740 +0.072712 0
+0.921434 -0.313461 0
+1.143542 -0.389020 0
+0.512859 -0.174469 0
+0.340971 -0.115995 0
+0.720191 -0.245001 0
+0.724613 -0.246505 0
+0.720191 -0.245001 0
+1.143542 -0.389020 0
+0.797965 -0.271459 0
+0.512859 -0.174469 0
+0.921434 -0.313461 0
+1.424863 -0.484722 0
+0.242304 -0.082429 0
-0.013095 +0.004455 0
+0.902855 -0.307141 0
+0.826491 -0.281163 0
+0.665385 -0.226356 0
+1.126666 -0.383279 0
+0.180821 -0.061513 0
+0.518675 -0.176447 0
+0.606303 -0.206257 0
+0.910426 -0.309717 0
+1.126666 -0.383279 0
+0.910426 -0.309717 0
+0.518675 -0.176447 0
+0.826491 -0.281163 0
-0.013095 +0.004455 0
+1.424863 -0.484722 0
+0.902855 -0.307141 0
+0.797965 -0.271459 0
+0.475313 -0.161696 0
+0.242304 -0.082429 0
-0.213740 +0.072712 0
+0.921434 -0.313461 0
+1.143542 -0.389020 0
+0.512859 -0.174469 0
+0.340971 -0.115995 0
+0.720191 -0.245001 0
+0.724613 -0.246505 0
+0.720191 -0.245001 0
+1.143542 -0.389020 0
+0.797965 -0.271459 0
+0.512859 -0.174469 0
+0.921434 -0.313461 0
+1.424863 -0.484722 0
+0.242304 -0.082429 0
-0.013095 +0.004455 0
+0.902855 -0.307141 0
+0.826491 -0.281163 0
