# vtk DataFile Version 2.0
MyTitle
ASCII
DATASET UNSTRUCTURED_GRID
POINTS 449 double
0.000000 0.000000 0.000000
1.000000 0.000000 0.000000
1.000000 1.000000 0.000000
0.000000 1.000000 0.000000
0.340000 0.340000 0.000000
0.660000 0.340000 0.000000
0.660000 0.660000 0.000000
0.340000 0.660000 0.000000
0.217157 0.217157 0.000000
0.782843 0.217157 0.000000
0.782843 0.782843 0.000000
0.217157 0.782843 0.000000
0.250000 0.000000 0.000000
0.500000 0.000000 0.000000
0.750000 0.000000 0.000000
0.125000 0.000000 0.000000
0.375000 0.000000 0.000000
0.625000 0.000000 0.000000
0.875000 0.000000 0.000000
1.000000 0.250000 0.000000
1.000000 0.500000 0.000000
1.000000 0.750000 0.000000
1.000000 0.125000 0.000000
1.000000 0.375000 0.000000
1.000000 0.625000 0.000000
1.000000 0.875000 0.000000
0.750000 1.000000 0.000000
0.500000 1.000000 0.000000
0.250000 1.000000 0.000000
0.875000 1.000000 0.000000
0.625000 1.000000 0.000000
0.375000 1.000000 0.000000
0.125000 1.000000 0.000000
0.000000 0.750000 0.000000
0.000000 0.500000 0.000000
0.000000 0.250000 0.000000
0.000000 0.875000 0.000000
0.000000 0.625000 0.000000
0.000000 0.375000 0.000000
0.000000 0.125000 0.000000
0.420000 0.340000 0.000000
0.500000 0.340000 0.000000
0.580000 0.340000 0.000000
0.380000 0.340000 0.000000
0.460000 0.340000 0.000000
0.540000 0.340000 0.000000
0.620000 0.340000 0.000000
0.660000 0.420000 0.000000
0.660000 0.500000 0.000000
0.660000 0.580000 0.000000
0.660000 0.380000 0.000000
0.660000 0.460000 0.000000
0.660000 0.540000 0.000000
0.660000 0.620000 0.000000
0.580000 0.660000 0.000000
0.500000 0.660000 0.000000
0.420000 0.660000 0.000000
0.620000 0.660000 0.000000
0.540000 0.660000 0.000000
0.460000 0.660000 0.000000
0.380000 0.660000 0.000000
0.340000 0.580000 0.000000
0.340000 0.500000 0.000000
0.340000 0.420000 0.000000
0.340000 0.620000 0.000000
0.340000 0.540000 0.000000
0.340000 0.460000 0.000000
0.340000 0.380000 0.000000
0.346926 0.130448 0.000000
0.500000 0.100000 0.000000
0.653074 0.130448 0.000000
0.277772 0.167412 0.000000
0.421964 0.107685 0.000000
0.578036 0.107685 0.000000
0.722228 0.167412 0.000000
0.869552 0.346926 0.000000
0.900000 0.500000 0.000000
0.869552 0.653074 0.000000
0.832588 0.277772 0.000000
0.892315 0.421964 0.000000
0.892315 0.578036 0.000000
0.832588 0.722228 0.000000
0.653074 0.869552 0.000000
0.500000 0.900000 0.000000
0.346926 0.869552 0.000000
0.722228 0.832588 0.000000
0.578036 0.892315 0.000000
0.421964 0.892315 0.000000
0.277772 0.832588 0.000000
0.130448 0.653074 0.000000
0.100000 0.500000 0.000000
0.130448 0.346926 0.000000
0.167412 0.722228 0.000000
0.107685 0.578036 0.000000
0.107685 0.421964 0.000000
0.167412 0.277772 0.000000
0.309289 0.309289 0.000000
0.278579 0.278579 0.000000
0.247868 0.247868 0.000000
0.324645 0.324645 0.000000
0.293934 0.293934 0.000000
0.263223 0.263223 0.000000
0.232512 0.232512 0.000000
0.690711 0.309289 0.000000
0.721421 0.278579 0.000000
0.752132 0.247868 0.000000
0.675355 0.324645 0.000000
0.706066 0.293934 0.000000
0.736777 0.263223 0.000000
0.767488 0.232512 0.000000
0.690711 0.690711 0.000000
0.721421 0.721421 0.000000
0.752132 0.752132 0.000000
0.675355 0.675355 0.000000
0.706066 0.706066 0.000000
0.736777 0.736777 0.000000
0.767488 0.767488 0.000000
0.309289 0.690711 0.000000
0.278579 0.721421 0.000000
0.247868 0.752132 0.000000
0.324645 0.675355 0.000000
0.293934 0.706066 0.000000
0.263223 0.736777 0.000000
0.232512 0.767488 0.000000
0.162868 0.162868 0.000000
0.108579 0.108579 0.000000
0.054289 0.054289 0.000000
0.190012 0.190012 0.000000
0.135723 0.135723 0.000000
0.081434 0.081434 0.000000
0.027145 0.027145 0.000000
0.837132 0.162868 0.000000
0.891421 0.108579 0.000000
0.945711 0.054289 0.000000
0.809988 0.190012 0.000000
0.864277 0.135723 0.000000
0.918566 0.081434 0.000000
0.972855 0.027145 0.000000
0.837132 0.837132 0.000000
0.891421 0.891421 0.000000
0.945711 0.945711 0.000000
0.809988 0.809988 0.000000
0.864277 0.864277 0.000000
0.918566 0.918566 0.000000
0.972855 0.972855 0.000000
0.162868 0.837132 0.000000
0.108579 0.891421 0.000000
0.054289 0.945711 0.000000
0.190012 0.809988 0.000000
0.135723 0.864277 0.000000
0.081434 0.918566 0.000000
0.027145 0.972855 0.000000
0.500000 0.500000 0.000000
0.500000 0.420000 0.000000
0.420000 0.500000 0.000000
0.420000 0.420000 0.000000
0.500000 0.580000 0.000000
0.420000 0.580000 0.000000
0.580000 0.500000 0.000000
0.580000 0.420000 0.000000
0.580000 0.580000 0.000000
0.420000 0.380000 0.000000
0.380000 0.420000 0.000000
0.500000 0.380000 0.000000
0.460000 0.420000 0.000000
0.500000 0.460000 0.000000
0.460000 0.500000 0.000000
0.420000 0.460000 0.000000
0.380000 0.500000 0.000000
0.420000 0.540000 0.000000
0.380000 0.580000 0.000000
0.500000 0.540000 0.000000
0.460000 0.580000 0.000000
0.500000 0.620000 0.000000
0.420000 0.620000 0.000000
0.580000 0.380000 0.000000
0.540000 0.420000 0.000000
0.620000 0.420000 0.000000
0.620000 0.500000 0.000000
0.580000 0.460000 0.000000
0.540000 0.500000 0.000000
0.580000 0.540000 0.000000
0.540000 0.580000 0.000000
0.620000 0.580000 0.000000
0.580000 0.620000 0.000000
0.500072 0.249932 0.000000
0.388982 0.258799 0.000000
0.500031 0.297852 0.000000
0.404613 0.300381 0.000000
0.500082 0.189674 0.000000
0.371973 0.206226 0.000000
0.611099 0.258924 0.000000
0.595436 0.301068 0.000000
0.628119 0.207404 0.000000
0.356951 0.304835 0.000000
0.412307 0.320190 0.000000
0.333780 0.268689 0.000000
0.396798 0.279590 0.000000
0.444527 0.254366 0.000000
0.500051 0.273892 0.000000
0.452322 0.299116 0.000000
0.500015 0.318926 0.000000
0.309920 0.227047 0.000000
0.380477 0.232513 0.000000
0.359450 0.168337 0.000000
0.500041 0.144837 0.000000
0.436027 0.197950 0.000000
0.500077 0.219803 0.000000
0.547733 0.299460 0.000000
0.587718 0.320534 0.000000
0.555585 0.254428 0.000000
0.603267 0.279996 0.000000
0.666260 0.268751 0.000000
0.643073 0.305179 0.000000
0.564100 0.198539 0.000000
0.619609 0.233164 0.000000
0.640596 0.168926 0.000000
0.690125 0.227636 0.000000
0.751986 0.500037 0.000000
0.741919 0.388957 0.000000
0.703631 0.500025 0.000000
0.699613 0.404598 0.000000
0.813295 0.500028 0.000000
0.794061 0.371932 0.000000
0.744245 0.611113 0.000000
0.699631 0.595435 0.000000
0.794079 0.628105 0.000000
0.695162 0.356943 0.000000
0.679806 0.412299 0.000000
0.731670 0.333768 0.000000
0.720766 0.396777 0.000000
0.746953 0.444497 0.000000
0.727808 0.500031 0.000000
0.701622 0.452312 0.000000
0.681815 0.500013 0.000000
0.773096 0.309900 0.000000
0.767990 0.380444 0.000000
0.831806 0.359429 0.000000
0.856648 0.500014 0.000000
0.803678 0.435980 0.000000
0.782640 0.500033 0.000000
0.701631 0.547730 0.000000
0.679816 0.587717 0.000000
0.748115 0.555575 0.000000
0.721938 0.603274 0.000000
0.732833 0.666267 0.000000
0.695171 0.643073 0.000000
0.803687 0.564066 0.000000
0.769162 0.619609 0.000000
0.831816 0.640589 0.000000
0.773106 0.690119 0.000000
0.500002 0.752195 0.000000
0.611092 0.742056 0.000000
0.500000 0.704686 0.000000
0.595423 0.699464 0.000000
0.500007 0.810233 0.000000
0.628092 0.792637 0.000000
0.388911 0.742512 0.000000
0.404578 0.699555 0.000000
0.371911 0.792728 0.000000
0.643067 0.695087 0.000000
0.587711 0.679732 0.000000
0.666257 0.731739 0.000000
0.603257 0.720760 0.000000
0.555547 0.747126 0.000000
0.500001 0.728440 0.000000
0.547712 0.702075 0.000000
0.500000 0.682343 0.000000
0.690112 0.772385 0.000000
0.619592 0.767347 0.000000
0.640583 0.831095 0.000000
0.500004 0.855117 0.000000
0.564050 0.801435 0.000000
0.500005 0.781214 0.000000
0.452289 0.702120 0.000000
0.412289 0.679777 0.000000
0.444457 0.747354 0.000000
0.396745 0.721033 0.000000
0.333745 0.731967 0.000000
0.356934 0.695133 0.000000
0.435959 0.801481 0.000000
0.380411 0.767620 0.000000
0.359419 0.831140 0.000000
0.309890 0.772430 0.000000
0.250234 0.499970 0.000000
0.258058 0.611043 0.000000
0.297647 0.499982 0.000000
0.300846 0.595403 0.000000
0.189229 0.499971 0.000000
0.206771 0.628071 0.000000
0.257606 0.388893 0.000000
0.300433 0.404566 0.000000
0.207117 0.371898 0.000000
0.305067 0.643057 0.000000
0.320423 0.587702 0.000000
0.268318 0.666232 0.000000
0.279452 0.603223 0.000000
0.254146 0.555507 0.000000
0.273941 0.499976 0.000000
0.299246 0.547692 0.000000
0.318824 0.499991 0.000000
0.227320 0.690102 0.000000
0.232415 0.619557 0.000000
0.168610 0.640572 0.000000
0.144614 0.499986 0.000000
0.198000 0.564021 0.000000
0.219731 0.499971 0.000000
0.299040 0.452274 0.000000
0.320217 0.412283 0.000000
0.253920 0.444431 0.000000
0.279019 0.396729 0.000000
0.268092 0.333736 0.000000
0.304861 0.356928 0.000000
0.198173 0.435935 0.000000
0.232361 0.380395 0.000000
0.168782 0.359412 0.000000
0.227492 0.309883 0.000000
0.500099 0.064453 0.000000
0.303929 0.082130 0.000000
0.500000 0.075000 0.000000
0.329204 0.113549 0.000000
0.500036 0.036387 0.000000
0.277099 0.043105 0.000000
0.696251 0.081855 0.000000
0.671570 0.111681 0.000000
0.722960 0.043106 0.000000
0.246036 0.138209 0.000000
0.338065 0.121999 0.000000
0.206254 0.095354 0.000000
0.316566 0.097840 0.000000
0.402014 0.073291 0.000000
0.500049 0.069726 0.000000
0.414602 0.094275 0.000000
0.500000 0.087500 0.000000
0.165694 0.048697 0.000000
0.290514 0.062617 0.000000
0.263549 0.021552 0.000000
0.500018 0.018194 0.000000
0.388567 0.039746 0.000000
0.500068 0.050420 0.000000
0.585785 0.093341 0.000000
0.662322 0.121065 0.000000
0.598175 0.073154 0.000000
0.683911 0.096768 0.000000
0.793836 0.095217 0.000000
0.754351 0.137275 0.000000
0.611498 0.039746 0.000000
0.709606 0.062480 0.000000
0.736480 0.021553 0.000000
0.834335 0.048697 0.000000
0.935584 0.499890 0.000000
0.918606 0.303744 0.000000
0.925000 0.500000 0.000000
0.888319 0.328430 0.000000
0.967815 0.499943 0.000000
0.957671 0.277035 0.000000
0.918456 0.696180 0.000000
0.888099 0.671479 0.000000
0.957650 0.722911 0.000000
0.862725 0.245649 0.000000
0.878935 0.337678 0.000000
0.905014 0.206161 0.000000
0.903463 0.316087 0.000000
0.927095 0.401817 0.000000
0.930292 0.499945 0.000000
0.906659 0.414215 0.000000
0.912500 0.500000 0.000000
0.951691 0.165662 0.000000
0.938139 0.290390 0.000000
0.978836 0.263517 0.000000
0.983908 0.499972 0.000000
0.962743 0.388489 0.000000
0.951699 0.499917 0.000000
0.906550 0.585740 0.000000
0.878826 0.662276 0.000000
0.927020 0.598035 0.000000
0.903277 0.683830 0.000000
0.904939 0.793801 0.000000
0.862616 0.754306 0.000000
0.962732 0.611427 0.000000
0.938053 0.709546 0.000000
0.978825 0.736456 0.000000
0.951680 0.834311 0.000000
0.499961 0.935186 0.000000
0.696080 0.918158 0.000000
0.500000 0.925000 0.000000
0.670796 0.886394 0.000000
0.499954 0.967788 0.000000
0.722905 0.957676 0.000000
0.303873 0.918359 0.000000
0.329155 0.886497 0.000000
0.277054 0.957846 0.000000
0.753964 0.861763 0.000000
0.661935 0.877973 0.000000
0.793751 0.904790 0.000000
0.683438 0.902276 0.000000
0.598021 0.926672 0.000000
0.499981 0.930093 0.000000
0.585398 0.905697 0.000000
0.500000 0.912500 0.000000
0.834308 0.951693 0.000000
0.709493 0.937917 0.000000
0.736453 0.978838 0.000000
0.499977 0.983894 0.000000
0.611430 0.962732 0.000000
0.499958 0.951487 0.000000
0.414577 0.905749 0.000000
0.338041 0.878025 0.000000
0.401917 0.926772 0.000000
0.316514 0.902428 0.000000
0.206226 0.904890 0.000000
0.246011 0.861815 0.000000
0.388504 0.962817 0.000000
0.290464 0.938103 0.000000
0.263527 0.978923 0.000000
0.165672 0.951779 0.000000
0.064685 0.499954 0.000000
0.081617 0.696198 0.000000
0.075000 0.500000 0.000000
0.111901 0.671479 0.000000
0.032322 0.500000 0.000000
0.042425 0.722929 0.000000
0.081569 0.303785 0.000000
0.111901 0.328521 0.000000
0.042358 0.277061 0.000000
0.137384 0.754306 0.000000
0.121174 0.662276 0.000000
0.095098 0.793810 0.000000
0.096759 0.683839 0.000000
0.073151 0.598076 0.000000
0.069842 0.499977 0.000000
0.093450 0.585740 0.000000
0.087500 0.500000 0.000000
0.048357 0.834320 0.000000
0.062021 0.709563 0.000000
0.021212 0.736464 0.000000
0.016161 0.500000 0.000000
0.037374 0.611464 0.000000
0.048504 0.499977 0.000000
0.093450 0.414260 0.000000
0.121174 0.337724 0.000000
0.073127 0.401870 0.000000
0.096735 0.316153 0.000000
0.095074 0.206182 0.000000
0.137384 0.245694 0.000000
0.037340 0.388531 0.000000
0.061964 0.290423 0.000000
0.021179 0.263531 0.000000
0.048324 0.165675 0.000000
CELLS 144 1296
8 4 40 155 63 43 161 162 67
8 40 41 153 155 44 163 164 161
8 155 153 152 154 164 165 166 167
8 63 155 154 62 162 167 168 66
8 62 154 157 61 168 169 170 65
8 154 152 156 157 166 171 172 169
8 157 156 55 56 172 173 59 174
8 61 157 56 7 170 174 60 64
8 41 42 159 153 45 175 176 163
8 42 5 47 159 46 50 177 175
8 159 47 48 158 177 51 178 179
8 153 159 158 152 176 179 180 165
8 152 158 160 156 180 181 182 171
8 158 48 49 160 178 52 183 181
8 160 49 6 54 183 53 57 184
8 156 160 54 55 182 184 58 173
8 4 96 188 40 99 194 195 43
8 96 97 186 188 100 196 197 194
8 188 186 185 187 197 198 199 200
8 40 188 187 41 195 200 201 44
8 97 98 190 186 101 202 203 196
8 98 8 68 190 102 71 204 202
8 190 68 69 189 204 72 205 206
8 186 190 189 185 203 206 207 198
8 41 187 192 42 201 208 209 45
8 187 185 191 192 199 210 211 208
8 192 191 104 103 211 212 107 213
8 42 192 103 5 209 213 106 46
8 185 189 193 191 207 214 215 210
8 189 69 70 193 205 73 216 214
8 193 70 9 105 216 74 109 217
8 191 193 105 104 215 217 108 212
8 5 103 221 47 106 227 228 50
8 103 104 219 221 107 229 230 227
8 221 219 218 220 230 231 232 233
8 47 221 220 48 228 233 234 51
8 104 105 223 219 108 235 236 229
8 105 9 75 223 109 78 237 235
8 223 75 76 222 237 79 238 239
8 219 223 222 218 236 239 240 231
8 48 220 225 49 234 241 242 52
8 220 218 224 225 232 243 244 241
8 225 224 111 110 244 245 114 246
8 49 225 110 6 242 246 113 53
8 218 222 226 224 240 247 248 243
8 222 76 77 226 238 80 249 247
8 226 77 10 112 249 81 116 250
8 224 226 112 111 248 250 115 245
8 6 110 254 54 113 260 261 57
8 110 111 252 254 114 262 263 260
8 254 252 251 253 263 264 265 266
8 54 254 253 55 261 266 267 58
8 111 112 256 252 115 268 269 262
8 112 10 82 256 116 85 270 268
8 256 82 83 255 270 86 271 272
8 252 256 255 251 269 272 273 264
8 55 253 258 56 267 274 275 59
8 253 251 257 258 265 276 277 274
8 258 257 118 117 277 278 121 279
8 56 258 117 7 275 279 120 60
8 251 255 259 257 273 280 281 276
8 255 83 84 259 271 87 282 280
8 259 84 11 119 282 88 123 283
8 257 259 119 118 281 283 122 278
8 7 117 287 61 120 293 294 64
8 117 118 285 287 121 295 296 293
8 287 285 284 286 296 297 298 299
8 61 287 286 62 294 299 300 65
8 118 119 289 285 122 301 302 295
8 119 11 89 289 123 92 303 301
8 289 89 90 288 303 93 304 305
8 285 289 288 284 302 305 306 297
8 62 286 291 63 300 307 308 66
8 286 284 290 291 298 309 310 307
8 291 290 97 96 310 311 100 312
8 63 291 96 4 308 312 99 67
8 284 288 292 290 306 313 314 309
8 288 90 91 292 304 94 315 313
8 292 91 8 98 315 95 102 316
8 290 292 98 97 314 316 101 311
8 8 124 320 68 127 326 327 71
8 124 125 318 320 128 328 329 326
8 320 318 317 319 329 330 331 332
8 68 320 319 69 327 332 333 72
8 125 126 322 318 129 334 335 328
8 126 0 12 322 130 15 336 334
8 322 12 13 321 336 16 337 338
8 318 322 321 317 335 338 339 330
8 69 319 324 70 333 340 341 73
8 319 317 323 324 331 342 343 340
8 324 323 132 131 343 344 135 345
8 70 324 131 9 341 345 134 74
8 317 321 325 323 339 346 347 342
8 321 13 14 325 337 17 348 346
8 325 14 1 133 348 18 137 349
8 323 325 133 132 347 349 136 344
8 9 131 353 75 134 359 360 78
8 131 132 351 353 135 361 362 359
8 353 351 350 352 362 363 364 365
8 75 353 352 76 360 365 366 79
8 132 133 355 351 136 367 368 361
8 133 1 19 355 137 22 369 367
8 355 19 20 354 369 23 370 371
8 351 355 354 350 368 371 372 363
8 76 352 357 77 366 373 374 80
8 352 350 356 357 364 375 376 373
8 357 356 139 138 376 377 142 378
8 77 357 138 10 374 378 141 81
8 350 354 358 356 372 379 380 375
8 354 20 21 358 370 24 381 379
8 358 21 2 140 381 25 144 382
8 356 358 140 139 380 382 143 377
8 10 138 386 82 141 392 393 85
8 138 139 384 386 142 394 395 392
8 386 384 383 385 395 396 397 398
8 82 386 385 83 393 398 399 86
8 139 140 388 384 143 400 401 394
8 140 2 26 388 144 29 402 400
8 388 26 27 387 402 30 403 404
8 384 388 387 383 401 404 405 396
8 83 385 390 84 399 406 407 87
8 385 383 389 390 397 408 409 406
8 390 389 146 145 409 410 149 411
8 84 390 145 11 407 411 148 88
8 383 387 391 389 405 412 413 408
8 387 27 28 391 403 31 414 412
8 391 28 3 147 414 32 151 415
8 389 391 147 146 413 415 150 410
8 11 145 419 89 148 425 426 92
8 145 146 417 419 149 427 428 425
8 419 417 416 418 428 429 430 431
8 89 419 418 90 426 431 432 93
8 146 147 421 417 150 433 434 427
8 147 3 33 421 151 36 435 433
8 421 33 34 420 435 37 436 437
8 417 421 420 416 434 437 438 429
8 90 418 423 91 432 439 440 94
8 418 416 422 423 430 441 442 439
8 423 422 125 124 442 443 128 444
8 91 423 124 8 440 444 127 95
8 416 420 424 422 438 445 446 441
8 420 34 35 424 436 38 447 445
8 424 35 0 126 447 39 130 448
8 422 424 126 125 446 448 129 443
CELL_TYPES 144
23
23
23
23
23
23
23
23
23
23
23
23
23
23
23
23
23
23
23
23
23
23
23
23
23
23
23
23
23
23
23
23
23
23
23
23
23
23
23
23
23
23
23
23
23
23
23
23
23
23
23
23
23
23
23
23
23
23
23
23
23
23
23
23
23
23
23
23
23
23
23
23
23
23
23
23
23
23
23
23
23
23
23
23
23
23
23
23
23
23
23
23
23
23
23
23
23
23
23
23
23
23
23
23
23
23
23
23
23
23
23
23
23
23
23
23
23
23
23
23
23
23
23
23
23
23
23
23
23
23
23
23
23
23
23
23
23
23
23
23
23
23
23
23
POINT_DATA 449
VECTORS sol double
+0.000000 +0.000000 0
+0.000000 +0.000000 0
+0.000000 +0.000000 0
+0.000000 +0.000000 0
-0.083008 +0.134983 0
-0.083013 +0.134990 0
-0.083024 +0.135008 0
-0.083011 +0.134987 0
+0.832201 -1.353269 0
+0.832172 -1.353222 0
+0.832229 -1.353315 0
+0.832237 -1.353328 0
+0.000000 +0.000000 0
+0.000000 +0.000000 0
+0.000000 +0.000000 0
+0.000000 +0.000000 0
+0.000000 +0.000000 0
+0.000000 +0.000000 0
+0.000000 +0.000000 0
+0.000000 +0.000000 0
+0.000000 +0.000000 0
+0.000000 +0.000000 0
+0.000000 +0.000000 0
+0.000000 +0.000000 0
+0.000000 +0.000000 0
+0.000000 +0.000000 0
+0.000000 +0.000000 0
+0.000000 +0.000000 0
+0.000000 +0.000000 0
+0.000000 +0.000000 0
+0.000000 +0.000000 0
+0.000000 +0.000000 0
+0.000000 +0.000000 0
+0.000000 +0.000000 0
+0.000000 +0.000000 0
+0.000000 +0.000000 0
+0.000000 +0.000000 0
+0.000000 +0.000000 0
+0.000000 +0.000000 0
+0.000000 +0.000000 0
-0.518206 +0.842671 0
-0.695249 +1.130567 0
-0.518216 +0.842687 0
-0.319545 +0.519622 0
-0.649571 +1.056288 0
-0.649576 +1.056296 0
-0.319531 +0.519600 0
-0.519195 +0.844280 0
-0.696674 +1.132884 0
-0.519196 +0.844282 0
-0.320088 +0.520505 0
-0.650889 +1.058432 0
-0.650885 +1.058424 0
-0.320096 +0.520518 0
-0.518191 +0.842647 0
-0.695286 +1.130628 0
-0.518185 +0.842638 0
-0.319539 +0.519613 0
-0.649601 +1.056337 0
-0.649597 +1.056331 0
-0.319540 +0.519614 0
-0.519199 +0.844287 0
-0.696638 +1.132826 0
-0.519201 +0.844289 0
-0.320071 +0.520478 0
-0.650861 +1.058386 0
-0.650860 +1.058385 0
-0.320090 +0.520509 0
+0.578972 -0.941485 0
+0.369689 -0.601163 0
+0.579062 -0.941631 0
+0.755180 -1.228022 0
+0.432073 -0.702608 0
+0.432126 -0.702695 0
+0.755073 -1.227849 0
+0.577538 -0.939153 0
+0.367843 -0.598162 0
+0.577518 -0.939121 0
+0.754281 -1.226560 0
+0.430196 -0.699555 0
+0.430185 -0.699538 0
+0.754299 -1.226591 0
+0.578985 -0.941507 0
+0.369645 -0.601092 0
+0.578992 -0.941517 0
+0.755171 -1.228008 0
+0.432073 -0.702607 0
+0.432067 -0.702598 0
+0.755180 -1.228023 0
+0.577513 -0.939113 0
+0.367784 -0.598065 0
+0.577511 -0.939110 0
+0.754258 -1.226523 0
+0.430223 -0.699599 0
+0.430227 -0.699606 0
+0.754232 -1.226481 0
+0.273777 -0.445197 0
+0.561677 -0.913361 0
+0.752949 -1.224394 0
+0.101344 -0.164799 0
+0.427715 -0.695520 0
+0.669459 -1.088629 0
+0.806742 -1.311870 0
+0.273750 -0.445153 0
+0.561672 -0.913353 0
+0.752926 -1.224357 0
+0.101322 -0.164763 0
+0.427699 -0.695496 0
+0.669435 -1.088590 0
+0.806713 -1.311822 0
+0.273870 -0.445349 0
+0.561670 -0.913350 0
+0.752931 -1.224365 0
+0.101366 -0.164834 0
+0.427764 -0.695601 0
+0.669500 -1.088696 0
+0.806743 -1.311870 0
+0.273816 -0.445261 0
+0.561660 -0.913333 0
+0.752976 -1.224438 0
+0.101348 -0.164805 0
+0.427731 -0.695548 0
+0.669495 -1.088688 0
+0.806726 -1.311843 0
+0.721206 -1.172776 0
+0.418933 -0.681241 0
+0.120698 -0.196271 0
+0.804393 -1.308050 0
+0.587817 -0.955869 0
+0.263314 -0.428183 0
+0.033823 -0.055000 0
+0.721239 -1.172829 0
+0.418923 -0.681225 0
+0.120689 -0.196256 0
+0.804590 -1.308370 0
+0.587750 -0.955759 0
+0.263321 -0.428196 0
+0.033826 -0.055005 0
+0.721215 -1.172791 0
+0.418915 -0.681211 0
+0.120718 -0.196304 0
+0.804416 -1.308087 0
+0.587808 -0.955854 0
+0.263244 -0.428069 0
+0.033901 -0.055127 0
+0.721208 -1.172780 0
+0.418904 -0.681193 0
+0.120716 -0.196300 0
+0.804426 -1.308104 0
+0.587800 -0.955840 0
+0.263234 -0.428053 0
+0.033911 -0.055143 0
-1.483426 +2.412247 0
-1.258792 +2.046963 0
-1.259201 +2.047627 0
-1.047067 +1.702669 0
-1.258805 +2.046984 0
-1.047069 +1.702672 0
-1.259216 +2.047651 0
-1.047072 +1.702678 0
-1.047080 +1.702690 0
-0.808559 +1.314824 0
-0.809015 +1.315566 0
-1.005007 +1.634274 0
-1.204429 +1.958560 0
-1.425844 +2.318612 0
-1.425951 +2.318784 0
-1.204732 +1.959053 0
-1.005868 +1.635675 0
-1.204733 +1.959056 0
-0.809014 +1.315563 0
-1.425850 +2.318621 0
-1.204435 +1.958570 0
-1.005022 +1.634299 0
-0.808559 +1.314824 0
-0.808565 +1.314833 0
-1.204433 +1.958567 0
-0.809023 +1.315578 0
-1.005887 +1.635706 0
-1.204741 +1.959068 0
-1.425958 +2.318796 0
-1.204746 +1.959076 0
-1.204440 +1.958579 0
-0.809024 +1.315580 0
-0.808565 +1.314833 0
+0.003307 -0.005378 0
+0.182391 -0.296592 0
-0.351804 +0.572081 0
-0.156140 +0.253904 0
+0.308217 -0.501201 0
+0.476568 -0.774963 0
+0.181963 -0.295897 0
-0.160902 +0.261648 0
+0.473252 -0.769570 0
+0.043538 -0.070798 0
-0.335670 +0.545844 0
+0.365261 -0.593963 0
+0.020635 -0.033556 0
+0.036117 -0.058731 0
-0.166173 +0.270220 0
-0.305444 +0.496693 0
-0.523079 +0.850595 0
+0.622690 -1.012577 0
+0.349028 -0.567566 0
+0.582579 -0.947351 0
+0.405787 -0.659863 0
+0.342984 -0.557738 0
+0.179276 -0.291526 0
-0.308004 +0.500855 0
-0.338157 +0.549888 0
+0.035961 -0.058477 0
+0.018191 -0.029581 0
+0.365150 -0.593781 0
+0.041464 -0.067426 0
+0.341164 -0.554778 0
+0.346392 -0.563280 0
+0.582327 -0.946941 0
+0.621161 -1.010090 0
+0.013422 -0.021826 0
+0.184990 -0.300818 0
-0.341916 +0.556001 0
-0.157479 +0.256081 0
+0.315662 -0.513307 0
+0.475660 -0.773485 0
+0.198639 -0.323014 0
-0.157190 +0.255612 0
+0.475798 -0.773710 0
+0.042804 -0.069606 0
-0.336834 +0.547737 0
+0.366239 -0.595553 0
+0.021535 -0.035018 0
+0.042442 -0.069016 0
-0.155786 +0.253328 0
-0.301487 +0.490258 0
-0.518708 +0.843488 0
+0.622212 -1.011799 0
+0.349606 -0.568506 0
+0.580999 -0.944782 0
+0.404214 -0.657305 0
+0.346319 -0.563160 0
+0.189109 -0.307516 0
-0.301293 +0.489943 0
-0.336682 +0.547490 0
+0.050041 -0.081373 0
+0.029472 -0.047926 0
+0.372232 -0.605298 0
+0.042897 -0.069756 0
+0.346404 -0.563299 0
+0.355071 -0.577393 0
+0.581028 -0.944828 0
+0.622383 -1.012076 0
+0.017190 -0.027953 0
+0.187585 -0.305039 0
-0.331504 +0.539069 0
-0.157092 +0.255453 0
+0.307799 -0.500522 0
+0.473287 -0.769627 0
+0.190206 -0.309299 0
-0.156441 +0.254394 0
+0.473538 -0.770035 0
+0.043119 -0.070118 0
-0.336148 +0.546621 0
+0.367627 -0.597811 0
+0.023153 -0.037649 0
+0.045926 -0.074682 0
-0.148882 +0.242102 0
-0.296095 +0.481490 0
-0.512683 +0.833690 0
+0.621232 -1.010206 0
+0.348661 -0.566970 0
+0.582265 -0.946840 0
+0.405727 -0.659766 0
+0.340968 -0.554458 0
+0.184430 -0.299908 0
-0.295739 +0.480911 0
-0.335805 +0.546064 0
+0.047377 -0.077042 0
+0.024946 -0.040565 0
+0.368750 -0.599637 0
+0.043385 -0.070550 0
+0.341103 -0.554679 0
+0.349892 -0.568971 0
+0.582300 -0.946897 0
+0.621366 -1.010423 0
-0.001142 +0.001857 0
+0.185131 -0.301047 0
-0.352108 +0.572574 0
-0.160787 +0.261461 0
+0.307152 -0.499469 0
+0.473189 -0.769468 0
+0.187975 -0.305673 0
-0.157692 +0.256429 0
+0.472211 -0.767878 0
+0.041362 -0.067260 0
-0.338562 +0.550547 0
+0.366346 -0.595727 0
+0.020094 -0.032675 0
+0.035391 -0.057551 0
-0.168747 +0.274405 0
-0.308203 +0.501179 0
-0.523915 +0.851955 0
+0.621079 -1.009956 0
+0.347824 -0.565608 0
+0.580721 -0.944330 0
+0.403500 -0.656144 0
+0.340454 -0.553623 0
+0.176998 -0.287822 0
-0.306517 +0.498437 0
-0.336955 +0.547933 0
+0.036976 -0.060128 0
+0.023133 -0.037617 0
+0.367624 -0.597806 0
+0.042740 -0.069501 0
+0.339918 -0.552752 0
+0.348243 -0.566289 0
+0.580616 -0.944159 0
+0.620640 -1.009243 0
+0.271922 -0.442181 0
+0.473991 -0.770773 0
+0.308931 -0.502363 0
+0.566467 -0.921149 0
+0.162001 -0.263435 0
+0.276401 -0.449464 0
+0.472835 -0.768892 0
+0.561871 -0.913676 0
+0.276433 -0.449516 0
+0.728562 -1.184738 0
+0.573568 -0.932698 0
+0.553647 -0.900303 0
+0.528977 -0.860187 0
+0.350099 -0.569307 0
+0.289740 -0.471156 0
+0.407543 -0.662718 0
+0.341871 -0.555927 0
+0.275178 -0.447475 0
+0.385733 -0.627253 0
+0.144092 -0.234312 0
+0.082417 -0.134020 0
+0.209834 -0.341218 0
+0.218697 -0.355630 0
+0.405381 -0.659204 0
+0.571855 -0.929911 0
+0.349744 -0.568730 0
+0.525352 -0.854293 0
+0.552955 -0.899178 0
+0.726056 -1.180664 0
+0.209871 -0.341277 0
+0.385044 -0.626133 0
+0.144101 -0.234328 0
+0.275157 -0.447442 0
+0.270542 -0.439937 0
+0.469872 -0.764074 0
+0.307410 -0.499889 0
+0.560660 -0.911707 0
+0.143621 -0.233547 0
+0.271207 -0.441019 0
+0.470524 -0.765135 0
+0.561185 -0.912562 0
+0.271318 -0.441199 0
+0.725501 -1.179761 0
+0.570502 -0.927711 0
+0.551602 -0.896977 0
+0.523414 -0.851140 0
+0.347418 -0.564948 0
+0.288331 -0.468864 0
+0.403680 -0.656437 0
+0.340137 -0.553107 0
+0.272975 -0.443893 0
+0.381078 -0.619684 0
+0.141349 -0.229852 0
+0.072569 -0.118007 0
+0.196729 -0.319908 0
+0.209650 -0.340919 0
+0.403936 -0.656853 0
+0.570712 -0.928054 0
+0.347582 -0.565215 0
+0.524027 -0.852138 0
+0.551975 -0.897584 0
+0.725773 -1.180203 0
+0.196751 -0.319943 0
+0.381535 -0.620427 0
+0.141401 -0.229936 0
+0.273029 -0.443982 0
+0.273192 -0.444247 0
+0.472708 -0.768686 0
+0.309034 -0.502530 0
+0.566678 -0.921494 0
+0.144418 -0.234843 0
+0.271524 -0.441535 0
+0.471786 -0.767187 0
+0.566456 -0.921132 0
+0.270483 -0.439841 0
+0.728663 -1.184902 0
+0.573653 -0.932835 0
+0.553008 -0.899264 0
+0.528586 -0.859550 0
+0.350204 -0.569478 0
+0.290301 -0.472068 0
+0.407587 -0.662791 0
+0.341938 -0.556036 0
+0.273072 -0.444052 0
+0.382858 -0.622578 0
+0.141480 -0.230065 0
+0.072982 -0.118678 0
+0.197424 -0.321038 0
+0.211488 -0.343908 0
+0.407465 -0.662592 0
+0.573574 -0.932707 0
+0.349867 -0.568930 0
+0.528043 -0.858668 0
+0.552534 -0.898493 0
+0.728533 -1.184690 0
+0.197016 -0.320373 0
+0.381844 -0.620929 0
+0.140928 -0.229168 0
+0.272598 -0.443280 0
+0.271435 -0.441390 0
+0.470880 -0.765714 0
+0.307382 -0.499844 0
+0.561168 -0.912533 0
+0.144205 -0.234497 0
+0.271781 -0.441953 0
+0.470656 -0.765348 0
+0.561166 -0.912531 0
+0.271368 -0.441280 0
+0.725752 -1.180168 0
+0.570700 -0.928033 0
+0.552123 -0.897825 0
+0.524160 -0.852353 0
+0.348273 -0.566338 0
+0.288732 -0.469517 0
+0.403963 -0.656897 0
+0.340091 -0.553034 0
+0.273212 -0.444279 0
+0.381955 -0.621109 0
+0.141640 -0.230325 0
+0.072881 -0.118514 0
+0.197300 -0.320836 0
+0.210434 -0.342194 0
+0.403965 -0.656900 0
+0.570700 -0.928033 0
+0.348225 -0.566260 0
+0.524067 -0.852202 0
+0.552004 -0.897632 0
+0.725733 -1.180137 0
+0.197131 -0.320561 0
+0.381617 -0.620560 0
+0.141440 -0.230000 0
+0.273061 -0.444033 0
