# vtk DataFile Version 2.0
this shit
ASCII
DATASET POLYDATA
POINTS 953 double
0.500000 -0.500000 0.000000
0.500000 0.500000 0.000000
1.000000 0.500000 0.000000
0.000000 2.000000 0.000000
-0.500000 0.500000 0.000000
-1.000000 0.500000 0.000000
-0.500000 -0.500000 0.000000
0.531250 0.500000 0.000000
0.562500 0.500000 0.000000
0.593750 0.500000 0.000000
0.625000 0.500000 0.000000
0.656250 0.500000 0.000000
0.687500 0.500000 0.000000
0.718750 0.500000 0.000000
0.750000 0.500000 0.000000
0.781250 0.500000 0.000000
0.812500 0.500000 0.000000
0.843750 0.500000 0.000000
0.875000 0.500000 0.000000
0.906250 0.500000 0.000000
0.937500 0.500000 0.000000
0.968750 0.500000 0.000000
0.937500 0.593750 0.000000
0.875000 0.687500 0.000000
0.812500 0.781250 0.000000
0.750000 0.875000 0.000000
0.687500 0.968750 0.000000
0.625000 1.062500 0.000000
0.562500 1.156250 0.000000
0.500000 1.250000 0.000000
0.437500 1.343750 0.000000
0.375000 1.437500 0.000000
0.312500 1.531250 0.000000
0.250000 1.625000 0.000000
0.187500 1.718750 0.000000
0.125000 1.812500 0.000000
0.062500 1.906250 0.000000
-0.062500 1.906250 0.000000
-0.125000 1.812500 0.000000
-0.187500 1.718750 0.000000
-0.250000 1.625000 0.000000
-0.312500 1.531250 0.000000
-0.375000 1.437500 0.000000
-0.437500 1.343750 0.000000
-0.500000 1.250000 0.000000
-0.562500 1.156250 0.000000
-0.625000 1.062500 0.000000
-0.687500 0.968750 0.000000
-0.750000 0.875000 0.000000
-0.812500 0.781250 0.000000
-0.875000 0.687500 0.000000
-0.937500 0.593750 0.000000
-0.968750 0.500000 0.000000
-0.937500 0.500000 0.000000
-0.906250 0.500000 0.000000
-0.875000 0.500000 0.000000
-0.843750 0.500000 0.000000
-0.812500 0.500000 0.000000
-0.781250 0.500000 0.000000
-0.750000 0.500000 0.000000
-0.718750 0.500000 0.000000
-0.687500 0.500000 0.000000
-0.656250 0.500000 0.000000
-0.625000 0.500000 0.000000
-0.593750 0.500000 0.000000
-0.562500 0.500000 0.000000
-0.531250 0.500000 0.000000
-0.500000 0.437500 0.000000
-0.500000 0.375000 0.000000
-0.500000 0.312500 0.000000
-0.500000 0.250000 0.000000
-0.500000 0.187500 0.000000
-0.500000 0.125000 0.000000
-0.500000 0.062500 0.000000
-0.500000 0.000000 0.000000
-0.500000 -0.062500 0.000000
-0.500000 -0.125000 0.000000
-0.500000 -0.187500 0.000000
-0.500000 -0.250000 0.000000
-0.500000 -0.312500 0.000000
-0.500000 -0.375000 0.000000
-0.500000 -0.437500 0.000000
-0.437500 -0.500000 0.000000
-0.375000 -0.500000 0.000000
-0.312500 -0.500000 0.000000
-0.250000 -0.500000 0.000000
-0.187500 -0.500000 0.000000
-0.125000 -0.500000 0.000000
-0.062500 -0.500000 0.000000
-0.000000 -0.500000 0.000000
0.062500 -0.500000 0.000000
0.125000 -0.500000 0.000000
0.187500 -0.500000 0.000000
0.250000 -0.500000 0.000000
0.312500 -0.500000 0.000000
0.375000 -0.500000 0.000000
0.437500 -0.500000 0.000000
0.500000 -0.437500 0.000000
0.500000 -0.375000 0.000000
0.500000 -0.312500 0.000000
0.500000 -0.250000 0.000000
0.500000 -0.187500 0.000000
0.500000 -0.125000 0.000000
0.500000 -0.062500 0.000000
0.500000 -0.000000 0.000000
0.500000 0.062500 0.000000
0.500000 0.125000 0.000000
0.500000 0.187500 0.000000
0.500000 0.250000 0.000000
0.500000 0.312500 0.000000
0.500000 0.375000 0.000000
0.500000 0.437500 0.000000
-0.000743 0.009493 0.000000
-0.248598 0.939159 0.000000
0.000164 0.535860 0.000000
0.248855 0.938351 0.000000
-0.164525 -0.159616 0.000000
0.163739 -0.159936 0.000000
0.162522 0.175882 0.000000
-0.163374 0.176306 0.000000
-0.624846 0.835900 0.000000
-0.499138 0.761035 0.000000
-0.374630 1.126464 0.000000
-0.370487 0.657798 0.000000
-0.124734 1.334501 0.000000
-0.231561 0.515447 0.000000
-0.121718 0.734293 0.000000
0.122185 0.734353 0.000000
0.000165 1.006698 0.000000
0.231926 0.515643 0.000000
0.370767 0.657619 0.000000
0.124863 1.333325 0.000000
0.624858 0.835587 0.000000
0.374697 1.125364 0.000000
0.499224 0.760421 0.000000
-0.058259 -0.050153 0.000000
-0.000527 -0.180232 0.000000
0.057050 -0.050420 0.000000
-0.103559 -0.329545 0.000000
0.102937 -0.329609 0.000000
-0.307918 -0.306085 0.000000
0.307644 -0.306300 0.000000
0.056836 0.068469 0.000000
-0.000476 0.199702 0.000000
-0.058199 0.068762 0.000000
0.100081 0.350921 0.000000
-0.100323 0.350976 0.000000
0.303268 0.316466 0.000000
-0.303498 0.316636 0.000000
-0.330817 0.108933 0.000000
-0.331463 -0.099729 0.000000
-0.184703 0.007769 0.000000
0.331004 -0.100080 0.000000
0.330298 0.108576 0.000000
0.183700 0.007246 0.000000
-0.812485 0.682642 0.000000
-0.749945 0.673001 0.000000
-0.687451 0.860305 0.000000
-0.687355 0.658653 0.000000
-0.562403 1.032554 0.000000
-0.624654 0.640129 0.000000
-0.562123 0.802424 0.000000
-0.436873 0.929874 0.000000
-0.499723 0.987843 0.000000
-0.373682 0.861579 0.000000
-0.311740 1.037805 0.000000
-0.437358 1.198497 0.000000
-0.561664 0.617723 0.000000
-0.497870 0.591015 0.000000
-0.435539 0.712885 0.000000
-0.431150 0.556015 0.000000
-0.309839 0.786105 0.000000
-0.312338 1.355555 0.000000
-0.249624 1.246185 0.000000
-0.187360 1.497096 0.000000
-0.186838 1.119667 0.000000
-0.062426 1.601273 0.000000
-0.354455 0.496277 0.000000
-0.302356 0.592526 0.000000
-0.179258 0.619248 0.000000
-0.244951 0.705085 0.000000
-0.114579 0.530348 0.000000
-0.059282 0.633539 0.000000
-0.185160 0.836730 0.000000
0.059743 0.633625 0.000000
0.000244 0.744330 0.000000
0.061876 0.863111 0.000000
-0.061455 0.863098 0.000000
0.185546 0.836590 0.000000
0.124347 0.988899 0.000000
-0.124032 0.989192 0.000000
0.114921 0.530471 0.000000
0.179702 0.619329 0.000000
0.302794 0.592752 0.000000
0.245362 0.705024 0.000000
0.354800 0.496633 0.000000
0.431363 0.556080 0.000000
0.310120 0.785572 0.000000
-0.062169 1.165132 0.000000
0.062394 1.164833 0.000000
0.000069 1.368775 0.000000
0.187034 1.118506 0.000000
0.062488 1.600332 0.000000
0.812484 0.682607 0.000000
0.687454 0.860230 0.000000
0.749947 0.672850 0.000000
0.562414 1.032343 0.000000
0.687365 0.658398 0.000000
0.437381 1.198036 0.000000
0.499758 0.987211 0.000000
0.436958 0.928964 0.000000
0.562160 0.801895 0.000000
0.311885 1.036473 0.000000
0.373848 0.860657 0.000000
0.624682 0.639770 0.000000
0.312376 1.354733 0.000000
0.187414 1.495843 0.000000
0.249725 1.244566 0.000000
0.561725 0.617375 0.000000
0.435703 0.712349 0.000000
0.497974 0.590807 0.000000
-0.021063 -0.011707 0.000000
-0.000612 -0.058449 0.000000
0.019732 -0.011825 0.000000
-0.035690 -0.112892 0.000000
0.034567 -0.113001 0.000000
-0.106654 -0.100075 0.000000
-0.082295 -0.175002 0.000000
0.081333 -0.175127 0.000000
0.105613 -0.100391 0.000000
-0.139214 -0.244379 0.000000
-0.046710 -0.252434 0.000000
-0.000324 -0.332352 0.000000
0.045848 -0.252461 0.000000
-0.057235 -0.414800 0.000000
0.056863 -0.414816 0.000000
0.138498 -0.244515 0.000000
-0.231466 -0.228196 0.000000
-0.206366 -0.321029 0.000000
-0.284416 -0.405730 0.000000
-0.171141 -0.411885 0.000000
-0.395564 -0.394905 0.000000
0.205901 -0.321174 0.000000
0.230940 -0.228467 0.000000
0.170825 -0.411935 0.000000
0.284219 -0.405816 0.000000
0.395472 -0.394992 0.000000
0.019613 0.030461 0.000000
-0.000698 0.077205 0.000000
-0.021134 0.030579 0.000000
0.034331 0.131619 0.000000
-0.035544 0.131776 0.000000
0.105083 0.117586 0.000000
0.080587 0.193589 0.000000
-0.081508 0.193844 0.000000
-0.106237 0.117990 0.000000
0.136476 0.262508 0.000000
0.045140 0.272867 0.000000
-0.000154 0.355615 0.000000
-0.045792 0.272938 0.000000
0.054079 0.441748 0.000000
-0.053999 0.441721 0.000000
-0.137038 0.262729 0.000000
0.228475 0.242357 0.000000
0.201173 0.337444 0.000000
0.274345 0.417045 0.000000
0.162951 0.432752 0.000000
0.389179 0.398665 0.000000
-0.201385 0.337573 0.000000
-0.228994 0.242665 0.000000
-0.162849 0.432708 0.000000
-0.274263 0.416996 0.000000
-0.389180 0.398651 0.000000
-0.404481 0.288214 0.000000
-0.412049 0.174266 0.000000
-0.321181 0.213278 0.000000
-0.415451 0.059662 0.000000
-0.246547 0.147825 0.000000
-0.415646 -0.054973 0.000000
-0.334071 0.004518 0.000000
-0.255521 -0.040624 0.000000
-0.255221 0.053411 0.000000
-0.247620 -0.134509 0.000000
-0.179715 -0.075644 0.000000
-0.179243 0.091463 0.000000
-0.412777 -0.169396 0.000000
-0.406535 -0.283136 0.000000
-0.322962 -0.203489 0.000000
-0.119001 0.044761 0.000000
-0.119109 -0.027271 0.000000
-0.066170 0.009263 0.000000
0.406411 -0.283300 0.000000
0.412585 -0.169558 0.000000
0.322619 -0.203790 0.000000
0.415393 -0.055165 0.000000
0.246992 -0.134925 0.000000
0.415195 0.059471 0.000000
0.333552 0.004108 0.000000
0.254440 0.052900 0.000000
0.254782 -0.041128 0.000000
0.245819 0.147377 0.000000
0.178236 0.090938 0.000000
0.178810 -0.076120 0.000000
0.411796 0.174103 0.000000
0.404292 0.288072 0.000000
0.320726 0.212972 0.000000
0.117972 -0.027706 0.000000
0.117768 0.044296 0.000000
0.064827 0.008903 0.000000
-0.906248 0.593144 0.000000
-0.874994 0.591933 0.000000
-0.843744 0.685678 0.000000
-0.843738 0.590122 0.000000
-0.781239 0.777592 0.000000
-0.812478 0.587722 0.000000
-0.781219 0.678407 0.000000
-0.718692 0.764821 0.000000
-0.749970 0.772107 0.000000
-0.687400 0.755745 0.000000
-0.656158 0.849287 0.000000
-0.718730 0.868880 0.000000
-0.781213 0.584732 0.000000
-0.749940 0.581158 0.000000
-0.718658 0.666389 0.000000
-0.718655 0.577017 0.000000
-0.656087 0.744908 0.000000
-0.656221 0.959510 0.000000
-0.624928 0.947144 0.000000
-0.593709 1.049429 0.000000
-0.593618 0.931709 0.000000
-0.531197 1.138595 0.000000
-0.687353 0.572399 0.000000
-0.656023 0.649848 0.000000
-0.593362 0.718447 0.000000
-0.624745 0.732426 0.000000
-0.561906 0.703036 0.000000
-0.530675 0.782622 0.000000
-0.593503 0.820212 0.000000
-0.467990 0.842153 0.000000
-0.499489 0.868321 0.000000
-0.468325 0.960353 0.000000
-0.530911 0.892114 0.000000
-0.405753 1.024429 0.000000
-0.437166 1.059019 0.000000
-0.562282 0.913305 0.000000
-0.436374 0.813908 0.000000
-0.405329 0.896742 0.000000
-0.342728 0.946005 0.000000
-0.374277 0.986504 0.000000
-0.311070 0.903441 0.000000
-0.280200 0.989233 0.000000
-0.343207 1.083771 0.000000
-0.531076 1.011954 0.000000
-0.468537 1.089799 0.000000
-0.499877 1.116391 0.000000
-0.406007 1.164852 0.000000
[...]
POINT_DATA 953
SCALARS solution_0 double
LOOKUP_TABLE defaul
0.000000
0.000000
0.000000
0.000000
0.000000
0.000000
0.000000
0.000000
0.000000
0.000000
0.000000
0.000000
0.000000
0.000000
0.000000
0.000000
0.000000
0.000000
0.000000
0.000000
0.000000
0.000000
0.000000
0.000000
0.000000
0.000000
0.000000
0.000000
0.000000
0.000000
0.000000
0.000000
0.000000
0.000000
0.000000
0.000000
0.000000
0.000000
0.000000
0.000000
0.000000
0.000000
0.000000
0.000000
0.000000
0.000000
0.000000
0.000000
0.000000
0.000000
0.000000
0.000000
0.000000
0.000000
0.000000
0.000000
0.000000
0.000000
0.000000
0.000000
0.000000
0.000000
0.000000
0.000000
0.000000
0.000000
0.000000
0.000000
0.000000
0.000000
0.000000
0.000000
0.000000
0.000000
0.000000
0.000000
0.000000
0.000000
0.000000
0.000000
0.000000
0.000000
0.000000
0.000000
0.000000
0.000000
0.000000
0.000000
0.000000
0.000000
0.000000
0.000000
0.000000
0.000000
0.000000
0.000000
0.000000
0.000000
0.000000
0.000000
0.000000
0.000000
0.000000
0.000000
0.000000
0.000000
0.000000
0.000000
0.000000
0.000000
0.000000
0.000000
-1.021180
-0.738181
-1.330806
-0.780390
-0.662709
-0.665631
-1.047373
-1.044546
-0.006829
-0.127097
-0.178335
-0.460396
-0.604213
-0.969991
-1.198206
-1.195610
-1.101245
-0.965699
-0.612835
-0.497337
-0.120292
-0.265588
-0.349765
-0.921251
-0.713401
-0.923354
-0.388057
-0.381752
-0.290042
-0.290092
-1.077771
-1.217515
-1.075546
-1.229216
-1.235168
-0.726623
-0.735202
-0.570244
-0.441462
-0.853758
-0.460747
-0.585448
-0.863626
-0.000009
-0.000430
-0.000395
-0.004814
-0.005457
-0.023612
-0.040296
-0.169451
-0.046680
-0.378796
-0.436782
-0.035934
-0.067376
-0.134864
-0.270487
-0.225387
-0.634146
-0.129786
-0.411509
-0.266715
-0.741297
-0.316146
-0.537966
-0.715238
-1.102596
-0.889757
-1.241881
-1.303586
-1.005906
-1.298944
-1.299626
-1.199809
-1.211371
-1.019065
-0.988977
-1.022255
-1.233586
-1.106576
-0.770296
-0.940954
-0.542146
-0.355242
-0.755725
-0.897316
-0.849028
-0.614784
-0.687669
-0.249755
-0.024695
-0.045935
-0.060702
-0.067010
-0.110048
-0.092028
-0.185719
-0.355877
-0.225125
-0.511040
-0.555687
-0.167673
-0.126278
-0.176716
-0.368872
-0.226910
-0.480124
-0.285000
-0.990474
-0.924557
-0.991731
-0.830602
-0.831108
-0.811861
-0.702552
-0.702149
-0.814757
-0.541485
-0.564671
-0.393908
-0.562735
-0.202055
-0.198370
-0.538191
-0.482648
-0.357595
-0.169165
-0.194550
-0.113406
-0.350512
-0.484416
-0.185903
-0.161663
-0.112625
-1.046267
-1.103099
-1.044924
-1.153337
-1.152672
-1.086841
-1.174234
-1.174084
-1.083692
-1.141221
-1.250493
-1.299906
-1.251946
-1.298678
-1.303383
-1.144120
-0.934151
-1.030865
-0.827083
-1.134856
-0.412275
-1.039887
-0.934767
-1.146113
-0.842194
-0.431814
-0.365622
-0.317072
-0.645891
-0.277481
-0.836706
-0.243027
-0.503944
-0.664688
-0.747664
-0.580229
-0.762463
-0.946486
-0.209721
-0.171229
-0.374521
-0.992741
-0.904378
-0.998670
-0.179732
-0.226214
-0.386181
-0.262120
-0.590995
-0.293787
-0.524349
-0.762154
-0.680051
-0.845325
-0.954391
-0.770587
-0.325858
-0.362437
-0.650742
-0.909660
-0.998091
-1.001735
-0.000000
-0.000001
-0.000000
-0.000008
-0.000005
-0.000058
-0.000080
-0.000466
-0.000072
-0.001968
-0.001973
-0.000042
-0.000279
-0.000986
-0.001636
-0.002755
-0.006192
-0.000232
-0.001638
-0.000968
-0.006622
-0.003250
-0.006374
-0.011569
-0.032936
-0.015592
-0.060387
-0.076091
-0.018286
-0.151234
-0.088411
-0.096072
-0.045129
-0.179402
-0.097450
-0.019368
-0.232520
-0.265154
-0.415840
-0.287612
-0.554911
-0.587442
-0.296436
-0.018463
-0.043963
-0.015159
-0.090597
-0.009079
-0.012603
-0.021887
-0.042124
-0.034094
-0.098689
-0.048586
-0.098616
-0.204784
-0.147237
-0.271251
-0.359169
-0.192455
-0.064259
-0.079156
-0.176118
-0.076697
-0.351307
-0.329279
-0.437537
-0.503665
-0.554612
-0.696328
-0.021534
-0.073363
-0.043658
-0.162892
-0.075942
-0.287484
-0.256382
-0.355583
-0.199094
-0.525163
-0.436053
-0.113361
-0.436881
-0.596714
-0.577581
-0.754694
-0.692047
-0.145299
-0.310549
-0.157886
-0.476102
-0.139581
-0.269901
-0.357092
-0.620768
-0.470700
-0.771952
-0.849293
-0.580329
-1.037815
-0.929121
-1.003874
-0.806835
-1.157804
-1.066962
-0.679205
-1.127556
-1.182069
-1.278815
-1.228351
-1.309930
-1.325919
-1.261456
-0.764327
-0.957528
-0.832377
-1.112661
-0.879483
-1.323283
-1.326648
-1.309126
-1.311828
-1.256639
-1.270794
-1.276203
-1.209795
-1.263206
-1.231398
-1.267670
-1.163915
-1.173678
-1.217722
-1.116258
-1.125389
-1.018086
-1.108147
-0.906228
-0.890688
-1.063681
-1.135319
-1.129362
-1.029083
-1.089491
-0.900844
-1.304839
-1.272559
-1.176760
-1.224025
-1.119763
-1.039896
-1.160181
-0.865977
-0.953281
-0.865979
-1.027222
-0.686509
-0.781280
-1.082692
-0.773789
-0.658818
-0.422680
-0.567356
-0.262828
-0.168112
-0.499367
-0.992954
-0.850597
-0.892711
-0.698807
-0.783258
-0.891369
-0.979418
-0.845499
-1.011837
-0.759804
-0.992101
-0.894764
-0.742041
-0.773773
-0.679061
-0.562816
-0.632710
-0.932160
-0.846353
-0.774953
-0.748018
-0.602640
-0.470958
-0.430519
-0.287658
-0.377344
-0.121338
-0.006316
-0.011617
-0.012940
-0.016165
-0.021056
-0.020225
-0.035566
-0.060065
-0.040925
-0.079062
-0.090244
-0.030857
-0.024057
-0.027916
-0.056256
-0.032054
-0.098581
-0.042266
-0.083929
-0.055016
-0.125945
-0.068712
-0.036740
-0.078740
-0.142258
-0.119374
-0.168227
-0.223274
-0.151787
-0.320359
-0.265332
-0.287894
-0.215425
-0.366937
-0.286011
-0.169400
-0.381650
-0.430207
-0.547629
-0.454135
-0.646651
-0.667110
-0.449623
-0.166334
-0.210248
-0.138328
-0.256191
-0.082830
-0.042272
-0.049036
-0.107607
-0.057489
-0.198320
-0.068228
-0.149011
-0.275203
-0.233685
-0.323472
-0.430732
-0.313903
-0.081931
-0.099344
-0.210316
-0.449716
-0.524254
-0.597933
-0.096960
-0.197440
-0.110797
-0.303017
-0.124049
-0.414966
-0.349945
-0.396914
-0.256130
-0.545755
-0.445352
-0.136314
-0.533412
-0.657314
-0.616677
-0.146917
-0.316304
-0.155110
-1.011123
-0.989210
-1.012225
-0.960195
-0.960741
-0.960670
-0.923648
-0.924622
-0.962310
-0.878502
-0.881539
-0.832726
-0.881925
-0.775938
-0.775948
-0.879788
-0.871698
-0.824075
-0.760146
-0.770968
-0.741919
-0.686998
-0.710930
-0.825472
-0.874271
-0.771265
-0.761353
-0.710469
-0.687664
-0.744970
-0.605573
-0.625684
-0.556707
-0.637664
-0.469154
-0.479292
-0.642916
-0.393450
-0.483217
-0.481788
-0.566492
-0.389966
-0.475352
-0.642318
-0.298514
-0.300144
-0.201340
-0.298147
-0.101289
-0.100016
-0.292874
-0.636139
-0.553464
-0.624105
-0.463705
-0.605278
-0.575606
-0.517383
-0.424445
-0.451415
-0.386381
-0.329372
-0.376549
-0.235397
-0.262499
-0.184674
-0.280933
-0.090253
-0.096364
-0.292470
-0.197472
-0.146232
-0.066171
-0.080614
-0.044066
-0.200009
-0.099853
-0.101341
-0.515749
-0.578103
-0.446147
-0.421328
-0.368893
-0.325011
-0.387273
-0.284252
-0.271793
-0.175708
-0.254448
-0.090051
-0.084116
-0.230433
-0.193277
-0.097733
-0.094464
-0.141837
-0.196900
-0.075904
-0.063777
-0.043545
-1.030363
-1.051069
-1.029202
-1.074497
-1.073903
-1.063232
-1.097075
-1.096018
-1.061474
-1.116063
-1.130457
-1.161455
-1.130017
-1.187902
-1.187741
-1.114624
-1.086753
-1.128482
-1.131172
-1.168992
-1.074835
-1.120920
-1.206630
-1.126796
-1.083973
-1.168308
-1.129522
-1.206696
-1.119802
-1.071505
-1.094509
-1.166055
-1.208953
-1.214669
-1.186637
-1.248033
-1.239401
-1.281306
-1.279730
-1.280885
-1.264995
-1.284469
-1.251301
-1.239757
-1.267352
-1.306597
-1.321464
-1.308622
-1.320808
-1.323391
-1.273126
-1.215547
-1.211417
-1.166942
-1.191439
-1.094599
-1.001451
-1.048946
-0.981477
-1.097078
-0.843228
-0.889865
-1.145130
-0.772424
-0.941164
-0.997672
-1.082446
-0.892710
-1.058482
-1.192061
-0.583264
-0.628186
-0.457078
-0.691354
-0.214660
-1.236020
-1.186529
-1.274695
-1.051115
-0.999728
-1.102516
-0.986639
-1.152862
-0.898978
-0.847020
-1.200748
-1.093217
-1.010534
-0.953428
-1.069114
-0.903195
-0.786000
-1.244429
-1.281702
-1.196259
-0.646135
-0.596912
-0.703240
-0.475989
-0.235036
-0.210480
-0.192459
-0.395143
-0.177730
-0.554318
-0.165016
-0.339878
-0.483371
-0.516905
-0.452776
-0.606577
-0.688343
-0.153675
-0.143457
-0.296374
-0.134095
-0.424647
-0.798041
-0.752122
-0.884501
-0.709017
-0.949412
-0.125351
-0.259846
-0.373533
-0.398439
-0.349232
-0.472644
-0.536192
-0.555929
-0.592686
-0.705763
-0.629880
-0.764716
-0.808814
-0.668430
-0.518454
-0.623274
-0.675560
-0.720704
-0.627744
-0.714418
-0.808416
-0.791097
-0.853970
-0.900761
-0.899504
-0.994843
-0.116988
-0.108757
-0.226521
-0.100276
-0.324758
-0.090997
-0.191719
-0.270679
-0.299051
-0.237713
-0.335528
-0.409222
-0.080046
-0.065765
-0.146271
-0.478869
-0.435493
-0.533933
-1.023369
-0.976170
-1.037804
-0.930079
-1.041208
-0.884693
-0.948451
-0.957609
-0.999149
-0.915612
-0.960666
-1.036733
-0.839106
-0.792039
-0.859336
-1.027680
-0.994611
-1.017607
-0.067155
-0.084742
-0.149711
-0.098895
-0.242717
-0.110656
-0.204800
-0.314719
-0.281437
-0.343904
-0.425454
-0.341520
-0.120683
-0.129543
-0.245025
-0.137649
-0.370250
-0.442007
-0.490422
-0.540566
-0.533871
-0.634151
-0.145331
-0.278192
-0.418360
-0.394785
-0.441762
-0.554769
-0.493336
-0.684099
-0.647755
-0.721384
-0.611299
-0.821236
-0.777343
-0.573732
-0.721156
-0.803271
-0.909508
-0.865075
-0.954941
-1.000595
-0.908873
-0.637032
-0.732391
-0.685126
-0.817917
-0.720299
-0.152886
-0.160625
-0.309515
-0.168773
-0.465746
-0.177557
-0.343338
-0.518088
-0.490983
-0.548182
-0.686888
-0.617241
-0.187267
-0.198666
-0.384502
-0.759640
-0.800154
-0.888927
-0.797206
-0.845784
-0.863698
-0.892136
-0.919154
-0.937529
-0.954101
-1.003299
-0.961702
-1.044889
-1.039624
-0.963448
-0.982883
-1.028674
-1.042346
-0.996770
-1.029900
-1.019328
SCALARS solution_1 double
LOOKUP_TABLE defaul
0.000000
0.000000
0.000000
0.000000
0.000000
0.000000
0.000000
0.000000
0.000000
0.000000
0.000000
0.000000
0.000000
0.000000
0.000000
0.000000
0.000000
0.000000
0.000000
0.000000
0.000000
0.000000
0.000000
0.000000
0.000000
0.000000
0.000000
0.000000
0.000000
0.000000
0.000000
0.000000
0.000000
0.000000
0.000000
0.000000
0.000000
0.000000
0.000000
0.000000
0.000000
0.000000
0.000000
0.000000
0.000000
0.000000
0.000000
0.000000
0.000000
0.000000
0.000000
0.000000
0.000000
0.000000
0.000000
0.000000
0.000000
0.000000
0.000000
0.000000
0.000000
0.000000
0.000000
0.000000
0.000000
0.000000
0.000000
0.000000
0.000000
0.000000
0.000000
0.000000
0.000000
0.000000
0.000000
0.000000
0.000000
0.000000
0.000000
0.000000
0.000000
0.000000
0.000000
0.000000
0.000000
0.000000
0.000000
0.000000
0.000000
0.000000
0.000000
0.000000
0.000000
0.000000
0.000000
0.000000
0.000000
0.000000
0.000000
0.000000
0.000000
0.000000
0.000000
0.000000
0.000000
0.000000
0.000000
0.000000
0.000000
0.000000
0.000000
0.000000
-1.393151
0.750415
0.042093
1.061702
-1.069373
-1.073751
-1.075242
-1.069567
0.009193
0.147665
0.216402
0.336525
0.795153
0.022962
0.734517
0.807499
1.251732
-0.021636
0.447908
0.859115
0.249086
0.528146
0.518838
-1.348651
-1.173049
-1.350045
-0.690442
-0.683306
-0.502913
-0.507703
-1.350181
-1.173065
-1.348980
-0.691560
-0.674153
-0.520415
-0.494364
-0.687778
-0.678306
-1.170213
-0.692705
-0.685363
-1.174257
0.000013
0.000603
0.000556
0.006448
0.007348
0.029637
0.051153
0.201522
0.059592
0.403268
0.495768
0.045892
0.076002
0.123467
0.268958
0.123403
0.557744
0.160307
0.498272
0.346120
0.857583
0.482023
0.011048
0.266887
0.370654
0.559653
0.037625
0.437976
0.848148
0.448571
0.827441
1.127841
1.058269
1.036913
1.238080
1.070473
0.022718
0.386312
0.256678
0.670193
-0.063030
0.097871
0.819587
1.133075
1.204017
0.931056
1.080802
0.458450
0.055890
0.104226
0.125575
0.151391
0.198503
0.204926
0.380100
0.628531
0.405750
0.863702
0.800670
0.249026
0.272756
0.360446
0.695681
0.253817
0.539119
0.202198
-1.387117
-1.364484
-1.387580
-1.292999
-1.293624
-1.248816
-1.149224
-1.149732
-1.251597
-0.923737
-0.971553
-0.704979
-0.969944
-0.369838
-0.364605
-0.922011
-0.811561
-0.629383
-0.303120
-0.353026
-0.200089
-0.623166
-0.816911
-0.341418
-0.294967
-0.202623
-1.387589
-1.364700
-1.387200
-1.294249
-1.293080
-1.252042
-1.152103
-1.147504
-1.249393
-0.929254
-0.972109
-0.699483
-0.966850
-0.357728
-0.346774
-0.916212
-0.821646
-0.640410
-0.329248
-0.357425
-0.226379
-0.610905
-0.809095
-0.322920
-0.274736
-0.184463
-0.298075
-0.350933
-0.626026
-0.367566
-0.922046
-0.361683
-0.701276
-0.965497
-0.968696
-0.916542
-1.145737
-1.148037
-0.337946
-0.291529
-0.617645
-1.291901
-1.291331
-1.363626
-0.305626
-0.354708
-0.633159
-0.370860
-0.927375
-0.365882
-0.706504
-0.971223
-0.973533
-0.924161
-1.150662
-1.151773
-0.344284
-0.302910
-0.628377
-1.294377
-1.294217
-1.365050
0.000000
0.000001
0.000001
0.000011
0.000008
0.000083
0.000114
0.000654
0.000103
0.002708
0.002718
0.000060
0.000389
0.001348
0.002246
0.003673
0.008319
0.000326
0.002258
0.001333
0.008920
0.004369
0.008244
0.015049
0.041607
0.020372
0.073130
0.092905
0.023963
0.177865
0.108678
0.118749
0.057488
0.215585
0.120986
0.025423
0.258321
0.300495
0.457210
0.332323
0.572200
0.635686
0.349140
0.024243
0.056172
0.019886
0.112856
0.011884
0.015689
0.025924
0.050508
0.037733
0.113103
0.048793
0.102181
0.195963
0.156572
0.222412
0.314899
0.209379
0.055685
0.053484
0.133104
0.032753
0.226839
0.339111
0.406737
0.493921
0.448049
0.660495
0.027451
0.091589
0.054556
0.199488
0.094532
0.345159
0.313829
0.445349
0.248531
0.656022
0.573279
0.144351
0.512022
0.677068
0.687217
0.819252
0.853207
0.195844
0.431605
0.233569
0.671692
0.233800
0.006581
0.091557
0.131993
0.201318
0.016324
0.164233
0.323487
0.192381
0.322681
0.487856
0.410889
0.553381
0.655043
0.452043
0.030627
0.216748
0.235513
0.410040
0.042235
0.246364
0.604747
0.582103
0.707588
0.708402
0.817693
0.824251
0.246824
0.451861
0.650562
0.638374
0.639000
0.832839
0.793603
0.987205
0.994966
1.113217
0.967017
1.218714
1.178194
0.906267
0.943892
1.101596
1.164075
1.213222
1.078224
1.165629
1.269255
0.967557
1.093865
0.972620
1.183837
0.921344
0.036047
0.235264
0.210711
0.427131
0.003041
0.174144
0.602650
0.127812
0.328689
0.460871
0.542345
0.363955
0.566503
0.752647
-0.046098
0.076878
0.028549
0.177335
-0.054395
-0.005134
0.259196
0.867901
0.764791
0.940552
0.641894
0.964455
0.989207
1.128537
1.015334
1.222964
0.986709
1.264228
1.196695
1.094839
1.069534
1.065702
0.914707
0.890421
1.252332
1.194414
1.160829
1.102265
0.997952
0.721752
0.716780
0.484671
0.674301
0.227265
0.014622
0.026968
0.029193
0.037603
0.045661
0.047104
0.080653
0.130994
0.089080
0.172404
0.187035
0.063561
0.056032
0.064939
0.127500
0.074347
0.214428
0.081741
0.163125
0.098651
0.245222
0.112592
0.084786
0.176883
0.305137
0.258279
0.356268
0.451564
0.313036
0.603590
0.507601
0.515017
0.416334
0.599327
0.471498
0.329250
0.704019
0.745691
0.861423
0.730324
0.988014
0.937282
0.659662
0.300574
0.347790
0.228340
0.381565
0.121841
0.096793
0.110993
0.236590
0.127992
0.412606
0.148373
0.314117
0.541473
0.474644
0.610385
0.781426
0.610083
0.172362
0.199353
0.410222
0.806760
0.907514
0.978241
0.125131
0.258189
0.121577
0.397979
0.110632
0.542723
0.394308
0.369421
0.235305
0.507470
0.323768
0.092049
0.689041
0.832038
0.683437
0.066070
0.156154
0.033265
-1.392134
-1.389300
-1.392292
-1.380020
-1.380303
-1.373907
-1.360570
-1.361233
-1.374776
-1.327306
-1.336488
-1.298259
-1.336829
-1.242514
-1.242686
-1.328399
-1.307877
-1.277075
-1.207509
-1.231174
-1.169523
-1.117279
-1.167253
-1.278594
-1.309924
-1.231925
-1.209347
-1.167251
-1.119243
-1.173115
-1.006513
-1.046425
-0.954528
-1.071222
-0.818716
-0.839951
-1.082838
-0.702569
-0.849184
-0.847718
-0.976429
-0.698505
-0.836031
-1.082480
-0.539678
-0.544318
-0.369513
-0.541703
-0.186964
-0.185017
-0.532403
-1.070445
-0.952094
-1.046195
-0.813709
-1.008222
-0.949188
-0.876871
-0.731597
-0.783391
-0.660741
-0.575656
-0.666729
-0.415774
-0.467012
-0.333148
-0.503003
-0.163411
-0.175580
-0.526486
-0.346021
-0.260078
-0.118042
-0.144922
-0.077982
-0.364705
-0.182915
-0.186449
-0.877815
-0.954213
-0.779545
-0.731336
-0.658696
-0.574056
-0.666026
-0.516263
-0.492412
-0.321897
-0.459028
-0.166547
-0.155187
-0.413080
-0.355334
-0.180989
-0.174924
-0.257272
-0.349852
-0.139509
-0.116612
-0.079091
-1.392278
-1.389339
-1.392153
-1.380403
-1.380155
-1.374847
-1.361433
-1.360827
-1.374085
-1.328769
-1.337157
-1.298578
-1.336734
-1.243316
-1.242415
-1.327565
-1.310166
-1.279309
-1.210715
-1.233144
-1.173934
-1.121718
-1.168617
-1.277195
-1.308340
-1.230672
-1.207161
-1.166068
-1.115964
-1.170026
-1.012512
-1.050436
-0.957433
-1.073262
-0.822727
-0.840719
-1.083095
-0.699853
-0.847261
-0.843711
-0.974885
-0.690911
-0.830293
-1.081188
-0.535638
-0.536115
-0.353347
-0.530873
-0.162404
-0.157586
-0.520006
-1.067878
-0.947554
-1.042423
-0.806461
-1.003340
-0.956882
-0.884896
-0.742571
-0.790950
-0.674010
-0.591059
-0.672505
-0.437778
-0.483675
-0.348803
-0.512139
-0.190466
-0.185538
-0.528288
-0.368377
-0.291187
-0.160386
-0.185448
-0.101813
-0.359296
-0.177174
-0.168899
-0.870763
-0.948384
-0.770828
-0.721392
-0.647917
-0.560582
-0.655546
-0.502622
-0.477399
-0.302711
-0.442467
-0.143800
-0.133828
-0.395615
-0.336934
-0.153875
-0.149846
-0.236455
-0.333393
-0.118395
-0.095830
-0.062779
-0.109824
-0.140705
-0.250695
-0.161179
-0.408092
-0.174226
-0.330250
-0.500134
-0.462556
-0.523989
-0.664080
-0.570266
-0.181744
-0.185210
-0.362639
-0.185577
-0.537001
-0.728255
-0.780941
-0.875052
-0.816332
-1.005673
-0.183475
-0.366966
-0.538152
-0.541273
-0.528296
-0.694082
-0.699492
-0.831091
-0.843482
-0.972696
-0.845716
-1.078771
-1.079919
-0.837176
-0.808253
-0.947045
-1.041376
-1.066092
-1.003124
-1.114911
-1.163749
-0.952376
-1.069149
-1.045095
-1.165201
-1.116856
-0.179260
-0.173066
-0.352065
-0.164647
-0.511751
-0.153331
-0.318386
-0.454304
-0.487692
-0.408593
-0.568691
-0.653319
-0.137748
-0.115048
-0.254102
-0.773796
-0.725603
-0.872192
-1.207189
-1.230009
-1.276758
-1.240545
-1.326969
-1.240062
-1.296489
-1.335315
-1.335487
-1.326515
-1.360016
-1.360216
-1.228770
-1.205849
-1.275927
-1.379688
-1.379622
-1.389034
-0.119420
-0.146285
-0.262780
-0.164613
-0.419557
-0.176582
-0.335340
-0.505797
-0.470402
-0.528590
-0.669743
-0.580107
-0.183657
-0.187034
-0.365963
-0.187531
-0.541294
-0.736272
-0.787249
-0.881433
-0.821705
-1.010673
-0.185699
-0.370598
-0.543147
-0.545743
-0.534175
-0.700066
-0.704386
-0.837610
-0.849177
-0.977860
-0.850915
-1.083684
-1.084460
-0.842231
-0.815937
-0.953638
-1.047585
-1.071601
-1.010120
-1.120371
-1.168216
-0.957296
-1.073551
-1.049641
-1.169043
-1.120771
-0.181888
-0.176274
-0.357148
-0.168716
-0.518922
-0.158784
-0.326669
-0.466106
-0.496743
-0.424605
-0.582340
-0.661950
-0.145636
-0.127750
-0.270836
-0.782998
-0.736697
-0.881049
-1.210235
-1.233116
-1.279113
-1.243822
-1.328743
-1.243597
-1.299187
-1.337421
-1.337446
-1.328747
-1.361540
-1.361511
-1.232623
-1.210030
-1.279047
-1.380557
-1.380570
-1.389524
SCALARS solution_2 double
LOOKUP_TABLE defaul
0.000000
0.000000
0.000000
0.000000
0.000000
0.000000
0.000000
0.000000
0.000000
0.000000
0.000000
0.000000
0.000000
0.000000
0.000000
0.000000
0.000000
0.000000
0.000000
0.000000
0.000000
0.000000
0.000000
0.000000
0.000000
0.000000
0.000000
0.000000
0.000000
0.000000
0.000000
0.000000
0.000000
0.000000
0.000000
0.000000
0.000000
0.000000
0.000000
0.000000
0.000000
0.000000
0.000000
0.000000
0.000000
0.000000
0.000000
0.000000
0.000000
0.000000
0.000000
0.000000
0.000000
0.000000
0.000000
0.000000
0.000000
0.000000
0.000000
0.000000
0.000000
0.000000
0.000000
0.000000
0.000000
0.000000
0.000000
0.000000
0.000000
0.000000
0.000000
0.000000
0.000000
0.000000
0.000000
0.000000
0.000000
0.000000
0.000000
0.000000
0.000000
0.000000
0.000000
0.000000
0.000000
0.000000
0.000000
0.000000
0.000000
0.000000
0.000000
0.000000
0.000000
0.000000
0.000000
0.000000
0.000000
0.000000
0.000000
0.000000
0.000000
0.000000
0.000000
0.000000
0.000000
0.000000
0.000000
0.000000
0.000000
0.000000
0.000000
0.000000
0.705646
-0.797089
-1.107673
1.204022
0.829766
0.855500
0.107414
0.034267
-0.017570
-0.232707
-0.304061
-0.603760
-0.002598
-0.976210
-1.098299
-0.439945
0.115121
-0.593622
0.036359
1.565651
0.747688
1.435589
0.833751
0.831893
0.963099
0.842816
0.662429
0.670527
0.451507
0.480316
0.511279
-0.034045
0.494602
-0.573199
-0.699661
-0.184366
-0.351347
0.188477