# vtk DataFile Version 2.0
MyTitle
ASCII
DATASET UNSTRUCTURED_GRID
POINTS 2773 double
0.800000 -0.800000 0.000000
0.800000 0.800000 0.000000
-0.800000 0.800000 0.000000
-0.800000 -0.800000 0.000000
1.414214 -1.414214 0.000000
1.414214 1.414214 0.000000
-1.414214 1.414214 0.000000
-1.414214 -1.414214 0.000000
0.800000 -0.711111 0.000000
0.800000 -0.622222 0.000000
0.800000 -0.533333 0.000000
0.800000 -0.444444 0.000000
0.800000 -0.355556 0.000000
0.800000 -0.266667 0.000000
0.800000 -0.177778 0.000000
0.800000 -0.088889 0.000000
0.800000 -0.000000 0.000000
0.800000 0.088889 0.000000
0.800000 0.177778 0.000000
0.800000 0.266667 0.000000
0.800000 0.355556 0.000000
0.800000 0.444444 0.000000
0.800000 0.533333 0.000000
0.800000 0.622222 0.000000
0.800000 0.711111 0.000000
0.800000 -0.755556 0.000000
0.800000 -0.666667 0.000000
0.800000 -0.577778 0.000000
0.800000 -0.488889 0.000000
0.800000 -0.400000 0.000000
0.800000 -0.311111 0.000000
0.800000 -0.222222 0.000000
0.800000 -0.133333 0.000000
0.800000 -0.044444 0.000000
0.800000 0.044444 0.000000
0.800000 0.133333 0.000000
0.800000 0.222222 0.000000
0.800000 0.311111 0.000000
0.800000 0.400000 0.000000
0.800000 0.488889 0.000000
0.800000 0.577778 0.000000
0.800000 0.666667 0.000000
0.800000 0.755556 0.000000
0.711111 0.800000 0.000000
0.622222 0.800000 0.000000
0.533333 0.800000 0.000000
0.444444 0.800000 0.000000
0.355556 0.800000 0.000000
0.266667 0.800000 0.000000
0.177778 0.800000 0.000000
0.088889 0.800000 0.000000
0.000000 0.800000 0.000000
-0.088889 0.800000 0.000000
-0.177778 0.800000 0.000000
-0.266667 0.800000 0.000000
-0.355556 0.800000 0.000000
-0.444444 0.800000 0.000000
-0.533333 0.800000 0.000000
-0.622222 0.800000 0.000000
-0.711111 0.800000 0.000000
0.755556 0.800000 0.000000
0.666667 0.800000 0.000000
0.577778 0.800000 0.000000
0.488889 0.800000 0.000000
0.400000 0.800000 0.000000
0.311111 0.800000 0.000000
0.222222 0.800000 0.000000
0.133333 0.800000 0.000000
0.044444 0.800000 0.000000
-0.044444 0.800000 0.000000
-0.133333 0.800000 0.000000
-0.222222 0.800000 0.000000
-0.311111 0.800000 0.000000
-0.400000 0.800000 0.000000
-0.488889 0.800000 0.000000
-0.577778 0.800000 0.000000
-0.666667 0.800000 0.000000
-0.755556 0.800000 0.000000
-0.800000 0.711111 0.000000
-0.800000 0.622222 0.000000
-0.800000 0.533333 0.000000
-0.800000 0.444444 0.000000
-0.800000 0.355556 0.000000
-0.800000 0.266667 0.000000
-0.800000 0.177778 0.000000
-0.800000 0.088889 0.000000
-0.800000 0.000000 0.000000
-0.800000 -0.088889 0.000000
-0.800000 -0.177778 0.000000
-0.800000 -0.266667 0.000000
-0.800000 -0.355556 0.000000
-0.800000 -0.444444 0.000000
-0.800000 -0.533333 0.000000
-0.800000 -0.622222 0.000000
-0.800000 -0.711111 0.000000
-0.800000 0.755556 0.000000
-0.800000 0.666667 0.000000
-0.800000 0.577778 0.000000
-0.800000 0.488889 0.000000
-0.800000 0.400000 0.000000
-0.800000 0.311111 0.000000
-0.800000 0.222222 0.000000
-0.800000 0.133333 0.000000
-0.800000 0.044444 0.000000
-0.800000 -0.044444 0.000000
-0.800000 -0.133333 0.000000
-0.800000 -0.222222 0.000000
-0.800000 -0.311111 0.000000
-0.800000 -0.400000 0.000000
-0.800000 -0.488889 0.000000
-0.800000 -0.577778 0.000000
-0.800000 -0.666667 0.000000
-0.800000 -0.755556 0.000000
-0.711111 -0.800000 0.000000
-0.622222 -0.800000 0.000000
-0.533333 -0.800000 0.000000
-0.444444 -0.800000 0.000000
-0.355556 -0.800000 0.000000
-0.266667 -0.800000 0.000000
-0.177778 -0.800000 0.000000
-0.088889 -0.800000 0.000000
-0.000000 -0.800000 0.000000
0.088889 -0.800000 0.000000
0.177778 -0.800000 0.000000
0.266667 -0.800000 0.000000
0.355556 -0.800000 0.000000
0.444444 -0.800000 0.000000
0.533333 -0.800000 0.000000
0.622222 -0.800000 0.000000
0.711111 -0.800000 0.000000
-0.755556 -0.800000 0.000000
-0.666667 -0.800000 0.000000
-0.577778 -0.800000 0.000000
-0.488889 -0.800000 0.000000
-0.400000 -0.800000 0.000000
-0.311111 -0.800000 0.000000
-0.222222 -0.800000 0.000000
-0.133333 -0.800000 0.000000
-0.044444 -0.800000 0.000000
0.044444 -0.800000 0.000000
0.133333 -0.800000 0.000000
0.222222 -0.800000 0.000000
0.311111 -0.800000 0.000000
0.400000 -0.800000 0.000000
0.488889 -0.800000 0.000000
0.577778 -0.800000 0.000000
0.666667 -0.800000 0.000000
0.755556 -0.800000 0.000000
1.532089 -1.285575 0.000000
1.638304 -1.147153 0.000000
1.732051 -1.000000 0.000000
1.812616 -0.845237 0.000000
1.879385 -0.684040 0.000000
1.931852 -0.517638 0.000000
1.969616 -0.347296 0.000000
1.992389 -0.174311 0.000000
2.000000 -0.000000 0.000000
1.992389 0.174311 0.000000
1.969616 0.347296 0.000000
1.931852 0.517638 0.000000
1.879385 0.684040 0.000000
1.812616 0.845237 0.000000
1.732051 1.000000 0.000000
1.638304 1.147153 0.000000
1.532089 1.285575 0.000000
1.474555 -1.351180 0.000000
1.586707 -1.217523 0.000000
1.686783 -1.074599 0.000000
1.774022 -0.923497 0.000000
1.847759 -0.765367 0.000000
1.907434 -0.601412 0.000000
1.952592 -0.432879 0.000000
1.982890 -0.261052 0.000000
1.998096 -0.087239 0.000000
1.998096 0.087239 0.000000
1.982890 0.261052 0.000000
1.952592 0.432879 0.000000
1.907434 0.601412 0.000000
1.847759 0.765367 0.000000
1.774022 0.923497 0.000000
1.686783 1.074599 0.000000
1.586707 1.217523 0.000000
1.474555 1.351180 0.000000
1.285575 1.532089 0.000000
1.147153 1.638304 0.000000
1.000000 1.732051 0.000000
0.845237 1.812616 0.000000
0.684040 1.879385 0.000000
0.517638 1.931852 0.000000
0.347296 1.969616 0.000000
0.174311 1.992389 0.000000
0.000000 2.000000 0.000000
-0.174311 1.992389 0.000000
-0.347296 1.969616 0.000000
-0.517638 1.931852 0.000000
-0.684040 1.879385 0.000000
-0.845237 1.812616 0.000000
-1.000000 1.732051 0.000000
-1.147153 1.638304 0.000000
-1.285575 1.532089 0.000000
1.351180 1.474555 0.000000
1.217523 1.586707 0.000000
1.074599 1.686783 0.000000
0.923497 1.774022 0.000000
0.765367 1.847759 0.000000
0.601412 1.907434 0.000000
0.432879 1.952592 0.000000
0.261052 1.982890 0.000000
0.087239 1.998096 0.000000
-0.087239 1.998096 0.000000
-0.261052 1.982890 0.000000
-0.432879 1.952592 0.000000
-0.601412 1.907434 0.000000
-0.765367 1.847759 0.000000
-0.923497 1.774022 0.000000
-1.074599 1.686783 0.000000
-1.217523 1.586707 0.000000
-1.351180 1.474555 0.000000
-1.532089 1.285575 0.000000
-1.638304 1.147153 0.000000
-1.732051 1.000000 0.000000
-1.812616 0.845237 0.000000
-1.879385 0.684040 0.000000
-1.931852 0.517638 0.000000
-1.969616 0.347296 0.000000
-1.992389 0.174311 0.000000
-2.000000 0.000000 0.000000
-1.992389 -0.174311 0.000000
-1.969616 -0.347296 0.000000
-1.931852 -0.517638 0.000000
-1.879385 -0.684040 0.000000
-1.812616 -0.845237 0.000000
-1.732051 -1.000000 0.000000
-1.638304 -1.147153 0.000000
-1.532089 -1.285575 0.000000
-1.474555 1.351180 0.000000
-1.586707 1.217523 0.000000
-1.686783 1.074599 0.000000
-1.774022 0.923497 0.000000
-1.847759 0.765367 0.000000
-1.907434 0.601412 0.000000
-1.952592 0.432879 0.000000
-1.982890 0.261052 0.000000
-1.998096 0.087239 0.000000
-1.998096 -0.087239 0.000000
-1.982890 -0.261052 0.000000
-1.952592 -0.432879 0.000000
-1.907434 -0.601412 0.000000
-1.847759 -0.765367 0.000000
-1.774022 -0.923497 0.000000
-1.686783 -1.074599 0.000000
-1.586707 -1.217523 0.000000
-1.474555 -1.351180 0.000000
-1.285575 -1.532089 0.000000
-1.147153 -1.638304 0.000000
-1.000000 -1.732051 0.000000
-0.845237 -1.812616 0.000000
-0.684040 -1.879385 0.000000
-0.517638 -1.931852 0.000000
-0.347296 -1.969616 0.000000
-0.174311 -1.992389 0.000000
-0.000000 -2.000000 0.000000
0.174311 -1.992389 0.000000
0.347296 -1.969616 0.000000
0.517638 -1.931852 0.000000
0.684040 -1.879385 0.000000
0.845237 -1.812616 0.000000
1.000000 -1.732051 0.000000
1.147153 -1.638304 0.000000
1.285575 -1.532089 0.000000
-1.351180 -1.474555 0.000000
-1.217523 -1.586707 0.000000
-1.074599 -1.686783 0.000000
-0.923497 -1.774022 0.000000
-0.765367 -1.847759 0.000000
-0.601412 -1.907434 0.000000
-0.432879 -1.952592 0.000000
-0.261052 -1.982890 0.000000
-0.087239 -1.998096 0.000000
0.087239 -1.998096 0.000000
0.261052 -1.982890 0.000000
0.432879 -1.952592 0.000000
0.601412 -1.907434 0.000000
0.765367 -1.847759 0.000000
0.923497 -1.774022 0.000000
1.074599 -1.686783 0.000000
1.217523 -1.586707 0.000000
1.351180 -1.474555 0.000000
0.876777 -0.876777 0.000000
0.953553 -0.953553 0.000000
1.030330 -1.030330 0.000000
1.107107 -1.107107 0.000000
1.183883 -1.183883 0.000000
1.260660 -1.260660 0.000000
1.337437 -1.337437 0.000000
0.838388 -0.838388 0.000000
0.915165 -0.915165 0.000000
0.991942 -0.991942 0.000000
1.068718 -1.068718 0.000000
1.145495 -1.145495 0.000000
1.222272 -1.222272 0.000000
1.299049 -1.299049 0.000000
1.375825 -1.375825 0.000000
0.876777 0.876777 0.000000
0.953553 0.953553 0.000000
1.030330 1.030330 0.000000
1.107107 1.107107 0.000000
1.183883 1.183883 0.000000
1.260660 1.260660 0.000000
1.337437 1.337437 0.000000
0.838388 0.838388 0.000000
0.915165 0.915165 0.000000
0.991942 0.991942 0.000000
1.068718 1.068718 0.000000
1.145495 1.145495 0.000000
1.222272 1.222272 0.000000
1.299049 1.299049 0.000000
1.375825 1.375825 0.000000
-0.876777 0.876777 0.000000
-0.953553 0.953553 0.000000
-1.030330 1.030330 0.000000
-1.107107 1.107107 0.000000
-1.183883 1.183883 0.000000
-1.260660 1.260660 0.000000
-1.337437 1.337437 0.000000
-0.838388 0.838388 0.000000
-0.915165 0.915165 0.000000
-0.991942 0.991942 0.000000
-1.068718 1.068718 0.000000
-1.145495 1.145495 0.000000
-1.222272 1.222272 0.000000
-1.299049 1.299049 0.000000
-1.375825 1.375825 0.000000
-0.876777 -0.876777 0.000000
-0.953553 -0.953553 0.000000
-1.030330 -1.030330 0.000000
-1.107107 -1.107107 0.000000
-1.183883 -1.183883 0.000000
-1.260660 -1.260660 0.000000
-1.337437 -1.337437 0.000000
-0.838388 -0.838388 0.000000
-0.915165 -0.915165 0.000000
-0.991942 -0.991942 0.000000
-1.068718 -1.068718 0.000000
-1.145495 -1.145495 0.000000
-1.222272 -1.222272 0.000000
-1.299049 -1.299049 0.000000
-1.375825 -1.375825 0.000000
1.004570 -0.750138 0.000000
1.046902 -0.541729 0.000000
1.076366 -0.327598 0.000000
1.091686 -0.109645 0.000000
1.091564 0.109637 0.000000
1.076182 0.327573 0.000000
[...]
POINT_DATA 2773
VECTORS sol double
+0.305913 +0.107541 0
+0.425044 +0.149321 0
-0.305913 -0.107541 0
-0.425044 -0.149321 0
+0.000000 +0.000000 0
+0.000000 +0.000000 0
+0.000000 +0.000000 0
+0.000000 +0.000000 0
+0.337753 +0.118728 0
+0.368618 +0.129571 0
+0.398028 +0.139903 0
+0.425503 +0.149553 0
+0.450579 +0.158360 0
+0.472815 +0.166168 0
+0.491804 +0.172835 0
+0.507180 +0.178232 0
+0.518627 +0.182248 0
+0.525887 +0.184793 0
+0.528766 +0.185798 0
+0.527138 +0.185220 0
+0.520951 +0.183041 0
+0.510227 +0.179267 0
+0.495064 +0.173934 0
+0.475637 +0.167104 0
+0.452192 +0.158863 0
+0.321921 +0.113165 0
+0.353334 +0.124202 0
+0.383532 +0.134811 0
+0.412034 +0.144822 0
+0.438367 +0.154071 0
+0.462077 +0.162398 0
+0.482738 +0.169653 0
+0.499964 +0.175700 0
+0.513411 +0.180419 0
+0.522794 +0.183709 0
+0.527883 +0.185491 0
+0.528520 +0.185709 0
+0.524614 +0.184331 0
+0.516150 +0.181351 0
+0.503189 +0.176792 0
+0.485867 +0.170701 0
+0.464396 +0.163153 0
+0.439055 +0.154246 0
+0.415456 +0.145949 0
+0.397117 +0.139501 0
+0.370472 +0.130136 0
+0.336175 +0.118081 0
+0.295063 +0.103632 0
+0.248143 +0.087143 0
+0.196562 +0.069015 0
+0.141576 +0.049692 0
+0.084525 +0.029644 0
+0.026792 +0.009357 0
-0.030230 -0.010681 0
-0.085172 -0.029986 0
-0.136724 -0.048100 0
-0.183671 -0.064596 0
-0.224917 -0.079087 0
-0.259521 -0.091245 0
-0.286711 -0.100796 0
+0.421364 +0.148027 0
+0.407359 +0.143102 0
+0.384798 +0.135171 0
+0.354234 +0.124428 0
+0.316413 +0.111136 0
+0.272262 +0.095619 0
+0.222860 +0.078257 0
+0.169413 +0.059475 0
+0.113223 +0.039729 0
+0.055656 +0.019500 0
-0.001896 -0.000724 0
-0.058046 -0.020455 0
-0.111452 -0.039221 0
-0.160847 -0.056576 0
-0.205072 -0.072115 0
-0.243104 -0.085477 0
-0.274086 -0.096361 0
-0.297341 -0.104530 0
-0.337753 -0.118728 0
-0.368618 -0.129571 0
-0.398028 -0.139903 0
-0.425503 -0.149553 0
-0.450579 -0.158360 0
-0.472815 -0.166168 0
-0.491804 -0.172835 0
-0.507180 -0.178232 0
-0.518627 -0.182248 0
-0.525887 -0.184793 0
-0.528766 -0.185798 0
-0.527138 -0.185220 0
-0.520951 -0.183041 0
-0.510227 -0.179267 0
-0.495064 -0.173934 0
-0.475637 -0.167104 0
-0.452192 -0.158863 0
-0.321921 -0.113165 0
-0.353335 -0.124202 0
-0.383532 -0.134811 0
-0.412034 -0.144823 0
-0.438367 -0.154071 0
-0.462077 -0.162398 0
-0.482738 -0.169653 0
-0.499964 -0.175700 0
-0.513411 -0.180419 0
-0.522794 -0.183709 0
-0.527883 -0.185491 0
-0.528520 -0.185709 0
-0.524614 -0.184331 0
-0.516150 -0.181351 0
-0.503189 -0.176792 0
-0.485867 -0.170701 0
-0.464396 -0.163153 0
-0.439055 -0.154246 0
-0.415456 -0.145949 0
-0.397117 -0.139501 0
-0.370472 -0.130136 0
-0.336175 -0.118081 0
-0.295063 -0.103632 0
-0.248143 -0.087143 0
-0.196562 -0.069015 0
-0.141576 -0.049692 0
-0.084525 -0.029644 0
-0.026792 -0.009357 0
+0.030230 +0.010680 0
+0.085172 +0.029986 0
+0.136724 +0.048100 0
+0.183671 +0.064596 0
+0.224917 +0.079087 0
+0.259521 +0.091245 0
+0.286711 +0.100796 0
-0.421364 -0.148027 0
-0.407359 -0.143102 0
-0.384798 -0.135171 0
-0.354234 -0.124428 0
-0.316413 -0.111136 0
-0.272262 -0.095619 0
-0.222860 -0.078257 0
-0.169413 -0.059475 0
-0.113223 -0.039729 0
-0.055656 -0.019500 0
+0.001896 +0.000724 0
+0.058046 +0.020455 0
+0.111452 +0.039221 0
+0.160847 +0.056576 0
+0.205072 +0.072115 0
+0.243104 +0.085477 0
+0.274086 +0.096361 0
+0.297341 +0.104530 0
+0.000000 +0.000000 0
+0.000000 +0.000000 0
+0.000000 +0.000000 0
+0.000000 +0.000000 0
+0.000000 +0.000000 0
+0.000000 +0.000000 0
+0.000000 +0.000000 0
+0.000000 +0.000000 0
+0.000000 +0.000000 0
+0.000000 +0.000000 0
+0.000000 +0.000000 0
+0.000000 +0.000000 0
+0.000000 +0.000000 0
+0.000000 +0.000000 0
+0.000000 +0.000000 0
+0.000000 +0.000000 0
+0.000000 +0.000000 0
+0.000000 +0.000000 0
+0.000000 +0.000000 0
+0.000000 +0.000000 0
+0.000000 +0.000000 0
+0.000000 +0.000000 0
+0.000000 +0.000000 0
+0.000000 +0.000000 0
+0.000000 +0.000000 0
+0.000000 +0.000000 0
+0.000000 +0.000000 0
+0.000000 +0.000000 0
+0.000000 +0.000000 0
+0.000000 +0.000000 0
+0.000000 +0.000000 0
+0.000000 +0.000000 0
+0.000000 +0.000000 0
+0.000000 +0.000000 0
+0.000000 +0.000000 0
+0.000000 +0.000000 0
+0.000000 +0.000000 0
+0.000000 +0.000000 0
+0.000000 +0.000000 0
+0.000000 +0.000000 0
+0.000000 +0.000000 0
+0.000000 +0.000000 0
+0.000000 +0.000000 0
+0.000000 +0.000000 0
+0.000000 +0.000000 0
+0.000000 +0.000000 0
+0.000000 +0.000000 0
+0.000000 +0.000000 0
+0.000000 +0.000000 0
+0.000000 +0.000000 0
+0.000000 +0.000000 0
+0.000000 +0.000000 0
+0.000000 +0.000000 0
+0.000000 +0.000000 0
+0.000000 +0.000000 0
+0.000000 +0.000000 0
+0.000000 +0.000000 0
+0.000000 +0.000000 0
+0.000000 +0.000000 0
+0.000000 +0.000000 0
+0.000000 +0.000000 0
+0.000000 +0.000000 0
+0.000000 +0.000000 0
+0.000000 +0.000000 0
+0.000000 +0.000000 0
+0.000000 +0.000000 0
+0.000000 +0.000000 0
+0.000000 +0.000000 0
+0.000000 +0.000000 0
+0.000000 +0.000000 0
+0.000000 +0.000000 0
+0.000000 +0.000000 0
+0.000000 +0.000000 0
+0.000000 +0.000000 0
+0.000000 +0.000000 0
+0.000000 +0.000000 0
+0.000000 +0.000000 0
+0.000000 +0.000000 0
+0.000000 +0.000000 0
+0.000000 +0.000000 0
+0.000000 +0.000000 0
+0.000000 +0.000000 0
+0.000000 +0.000000 0
+0.000000 +0.000000 0
+0.000000 +0.000000 0
+0.000000 +0.000000 0
+0.000000 +0.000000 0
+0.000000 +0.000000 0
+0.000000 +0.000000 0
+0.000000 +0.000000 0
+0.000000 +0.000000 0
+0.000000 +0.000000 0
+0.000000 +0.000000 0
+0.000000 +0.000000 0
+0.000000 +0.000000 0
+0.000000 +0.000000 0
+0.000000 +0.000000 0
+0.000000 +0.000000 0
+0.000000 +0.000000 0
+0.000000 +0.000000 0
+0.000000 +0.000000 0
+0.000000 +0.000000 0
+0.000000 +0.000000 0
+0.000000 +0.000000 0
+0.000000 +0.000000 0
+0.000000 +0.000000 0
+0.000000 +0.000000 0
+0.000000 +0.000000 0
+0.000000 +0.000000 0
+0.000000 +0.000000 0
+0.000000 +0.000000 0
+0.000000 +0.000000 0
+0.000000 +0.000000 0
+0.000000 +0.000000 0
+0.000000 +0.000000 0
+0.000000 +0.000000 0
+0.000000 +0.000000 0
+0.000000 +0.000000 0
+0.000000 +0.000000 0
+0.000000 +0.000000 0
+0.000000 +0.000000 0
+0.000000 +0.000000 0
+0.000000 +0.000000 0
+0.000000 +0.000000 0
+0.000000 +0.000000 0
+0.000000 +0.000000 0
+0.000000 +0.000000 0
+0.000000 +0.000000 0
+0.000000 +0.000000 0
+0.000000 +0.000000 0
+0.000000 +0.000000 0
+0.000000 +0.000000 0
+0.000000 +0.000000 0
+0.000000 +0.000000 0
+0.000000 +0.000000 0
+0.000000 +0.000000 0
+0.000000 +0.000000 0
+0.000000 +0.000000 0
+0.000000 +0.000000 0
+0.000000 +0.000000 0
+0.286770 +0.100811 0
+0.259486 +0.091220 0
+0.225173 +0.079157 0
+0.185167 +0.065093 0
+0.140986 +0.049562 0
+0.094268 +0.033139 0
+0.046710 +0.016420 0
+0.297420 +0.104555 0
+0.274085 +0.096352 0
+0.243132 +0.085471 0
+0.205792 +0.072344 0
+0.163501 +0.057477 0
+0.117841 +0.041426 0
+0.070490 +0.024780 0
+0.023142 +0.008135 0
+0.398445 +0.139977 0
+0.360537 +0.126660 0
+0.312861 +0.109911 0
+0.257276 +0.090383 0
+0.195890 +0.068818 0
+0.130978 +0.046014 0
+0.064900 +0.022800 0
+0.413243 +0.145176 0
+0.380821 +0.133785 0
+0.337814 +0.118677 0
+0.285933 +0.100451 0
+0.227172 +0.079807 0
+0.163731 +0.057520 0
+0.097940 +0.034407 0
+0.032154 +0.011296 0
-0.286770 -0.100811 0
-0.259486 -0.091220 0
-0.225173 -0.079157 0
-0.185167 -0.065094 0
-0.140986 -0.049562 0
-0.094268 -0.033139 0
-0.046710 -0.016420 0
-0.297420 -0.104555 0
-0.274085 -0.096352 0
-0.243132 -0.085471 0
-0.205792 -0.072344 0
-0.163501 -0.057477 0
-0.117841 -0.041426 0
-0.070490 -0.024780 0
-0.023142 -0.008135 0
-0.398445 -0.139977 0
-0.360537 -0.126660 0
-0.312860 -0.109911 0
-0.257276 -0.090383 0
-0.195890 -0.068818 0
-0.130978 -0.046014 0
-0.064900 -0.022800 0
-0.413244 -0.145176 0
-0.380821 -0.133785 0
-0.337814 -0.118677 0
-0.285933 -0.100451 0
-0.227172 -0.079807 0
-0.163731 -0.057520 0
-0.097940 -0.034407 0
-0.032154 -0.011296 0
+0.337374 +0.118587 0
+0.410316 +0.144213 0
+0.471229 +0.165609 0
+0.512808 +0.180209 0
+0.529899 +0.186203 0
+0.520457 +0.182874 0
+0.485877 +0.170714 0
+0.430884 +0.151383 0
+0.255448 +0.089789 0
+0.320181 +0.112533 0
+0.373825 +0.131377 0
+0.405987 +0.142670 0
+0.420144 +0.147636 0
+0.410301 +0.144169 0
+0.376096 +0.132143 0
+0.324051 +0.113850 0
+0.138028 +0.048516 0
+0.175451 +0.061665 0
+0.205982 +0.072390 0
+0.223615 +0.078582 0
+0.228047 +0.080135 0
+0.223225 +0.078436 0
+0.205028 +0.072038 0
+0.174452 +0.061291 0
+0.298712 +0.105003 0
+0.360088 +0.126572 0
+0.323754 +0.113806 0
+0.374955 +0.131791 0
+0.428148 +0.150482 0
+0.395167 +0.138896 0
+0.442844 +0.155640 0
+0.484897 +0.170414 0
+0.458331 +0.161084 0
+0.494902 +0.173923 0
+0.524547 +0.184335 0
+0.507173 +0.178236 0
+0.524680 +0.184375 0
+0.542804 +0.190738 0
+0.536528 +0.188539 0
+0.528615 +0.185747 0
+0.537680 +0.188925 0
+0.543188 +0.190867 0
+0.506171 +0.177849 0
+0.509770 +0.179108 0
+0.526408 +0.184959 0
+0.460376 +0.161749 0
+0.461908 +0.162282 0
+0.488062 +0.171475 0
+0.397276 +0.139571 0
+0.431904 +0.151736 0
+0.220613 +0.077549 0
+0.301605 +0.106014 0
+0.263797 +0.092729 0
+0.288319 +0.101339 0
+0.373157 +0.131153 0
+0.338595 +0.119010 0
+0.348344 +0.122426 0
+0.432902 +0.152139 0
+0.405272 +0.142434 0
+0.393393 +0.138249 0
+0.472738 +0.166128 0
+0.455950 +0.160234 0
+0.414309 +0.145590 0
+0.488144 +0.171531 0
+0.483700 +0.169975 0
+0.419255 +0.147320 0
+0.477014 +0.167610 0
+0.486349 +0.170895 0
+0.396614 +0.139356 0
+0.440017 +0.154601 0
+0.461314 +0.162089 0
+0.351588 +0.123528 0
+0.383965 +0.134899 0
+0.414574 +0.145657 0
+0.292296 +0.102690 0
+0.350306 +0.123069 0
+0.117393 +0.041266 0
+0.200381 +0.070433 0
+0.171605 +0.060322 0
+0.158114 +0.055574 0
+0.253505 +0.089098 0
+0.228264 +0.080230 0
+0.192482 +0.067648 0
+0.297067 +0.104401 0
+0.277380 +0.097485 0
+0.216112 +0.075947 0
+0.323666 +0.113741 0
+0.313219 +0.110074 0
+0.227320 +0.079881 0
+0.333650 +0.117243 0
+0.331008 +0.116318 0
+0.226909 +0.079733 0
+0.325411 +0.114341 0
+0.332410 +0.116804 0
+0.216829 +0.076186 0
+0.296862 +0.104304 0
+0.313452 +0.110136 0
+0.191596 +0.067316 0
+0.253656 +0.089118 0
+0.277474 +0.097489 0
+0.155110 +0.054493 0
+0.226999 +0.079750 0
+0.071217 +0.025032 0
+0.060128 +0.021136 0
+0.090641 +0.031857 0
+0.081548 +0.028662 0
+0.105442 +0.037056 0
+0.098550 +0.034635 0
+0.115248 +0.040500 0
+0.111544 +0.039199 0
+0.118187 +0.041530 0
+0.116937 +0.041092 0
+0.115001 +0.040409 0
+0.117696 +0.041357 0
+0.106091 +0.037276 0
+0.111109 +0.039040 0
+0.089415 +0.031415 0
+0.098126 +0.034476 0
+0.078974 +0.027745 0
+0.305301 +0.107323 0
+0.332183 +0.116770 0
+0.279137 +0.098125 0
+0.312538 +0.109863 0
+0.318205 +0.111852 0
+0.350427 +0.123176 0
+0.342051 +0.120235 0
+0.366175 +0.128712 0
+0.377852 +0.132813 0
+0.398805 +0.140175 0
+0.356450 +0.125290 0
+0.387155 +0.136079 0
+0.393047 +0.138147 0
+0.421721 +0.148222 0
+0.411977 +0.144801 0
+0.429420 +0.150929 0
+0.443653 +0.155928 0
+0.457383 +0.160751 0
+0.427111 +0.150113 0
+0.453434 +0.159362 0
+0.457683 +0.160852 0
+0.481231 +0.169125 0
+0.472114 +0.165924 0
+0.482093 +0.169429 0
+0.496613 +0.174528 0
+0.502950 +0.176752 0
+0.483811 +0.170028 0
+0.504455 +0.177280 0
+0.504684 +0.177357 0
+0.522283 +0.183539 0
+0.516502 +0.181511 0
+0.519503 +0.182563 0
+0.531228 +0.186680 0
+0.531293 +0.186699 0
+0.519631 +0.182604 0
+0.534296 +0.187754 0
+0.528212 +0.185613 0
+0.540043 +0.189768 0
+0.540390 +0.189893 0
+0.538077 +0.189077 0
+0.543732 +0.191061 0
+0.539616 +0.189611 0
+0.530183 +0.186300 0
+0.539479 +0.189564 0
+0.525449 +0.184631 0
+0.532479 +0.187098 0
+0.541168 +0.190154 0
+0.535906 +0.188302 0
+0.532756 +0.187192 0
+0.526969 +0.185156 0
+0.514180 +0.180666 0
+0.519408 +0.182500 0
+0.496828 +0.174564 0
+0.500669 +0.175910 0
+0.518756 +0.182267 0
+0.512970 +0.180232 0
+0.499535 +0.175509 0
+0.494203 +0.173633 0
+0.473848 +0.166485 0
+0.476708 +0.167487 0
+0.446253 +0.156785 0
+0.448463 +0.157558 0
+0.475536 +0.167072 0
+0.471034 +0.165487 0
+0.447384 +0.157176 0
+0.443910 +0.155954 0
+0.414604 +0.145661 0
+0.416281 +0.146248 0
+0.379324 +0.133262 0
+0.415579 +0.145998 0
+0.244570 +0.085974 0
+0.282384 +0.099263 0
+0.203067 +0.071384 0
+0.243115 +0.085459 0
+0.238384 +0.083794 0
+0.279731 +0.098325 0
+0.282946 +0.099458 0
+0.320996 +0.112830 0
+0.320487 +0.112648 0
+0.358657 +0.126062 0
+0.272419 +0.095752 0
+0.315022 +0.110724 0
+0.304925 +0.107173 0
+0.348512 +0.122490 0
+0.356416 +0.125271 0
+0.394004 +0.138480 0
+0.389887 +0.137030 0
+0.426665 +0.149953 0
+0.335101 +0.117774 0
+0.379006 +0.133203 0
+0.362046 +0.127240 0
+0.405773 +0.142605 0
+0.419897 +0.147571 0
+0.454990 +0.159902 0
+0.445347 +0.156510 0
+0.478599 +0.168193 0
+0.384705 +0.135198 0
+0.427361 +0.150187 0
+0.400897 +0.140884 0
+0.442335 +0.155444 0
+0.465362 +0.163538 0
+0.496149 +0.174355 0
+0.479297 +0.168430 0
+0.507663 +0.178396 0
+0.411410 +0.144574 0
+0.452134 +0.158882 0
+0.418502 +0.147061 0
+0.457104 +0.160624 0
+0.487034 +0.171144 0
+0.512456 +0.180074 0
+0.488358 +0.171604 0
+0.510773 +0.179477 0
+0.420976 +0.147926 0
+0.455614 +0.160096 0
+0.416029 +0.146184 0
+0.446293 +0.156816 0
+0.482771 +0.169635 0
+0.501843 +0.176334 0
+0.470197 +0.165212 0
+0.486636 +0.170986 0
+0.404645 +0.142180 0
+0.431295 +0.151541 0
+0.387453 +0.136135 0
+0.410148 +0.144107 0
+0.451617 +0.158679 0
+0.465518 +0.163561 0
+0.428144 +0.150427 0
+0.439622 +0.154457 0
+0.364834 +0.128184 0
+0.384925 +0.135240 0
+0.338691 +0.118995 0
+0.355482 +0.124892 0
+0.400004 +0.140536 0
+0.409253 +0.143783 0
+0.367746 +0.129198 0
+0.375225 +0.131824 0
+0.308902 +0.108525 0
+0.322473 +0.113291 0
+0.275358 +0.096737 0
+0.332058 +0.116657 0
+0.156581 +0.055043 0
+0.196752 +0.069162 0
+0.106267 +0.037356 0
+0.144890 +0.050931 0
+0.128384 +0.045128 0
+0.169783 +0.059678 0
+0.186500 +0.065556 0
+0.228823 +0.080431 0
+0.214992 +0.075567 0
+0.259425 +0.091183 0
+0.148891 +0.052333 0
+0.193950 +0.068170 0
+0.167773 +0.058967 0
+0.215414 +0.075710 0
+0.241728 +0.084961 0
+0.288265 +0.101315 0
+0.266413 +0.093633 0
+0.314473 +0.110522 0
+0.185061 +0.065041 0
+0.236027 +0.082952 0
+0.200459 +0.070450 0
+0.252748 +0.088825 0
+0.288341 +0.101336 0
+0.337308 +0.118543 0
+0.306370 +0.107669 0
+0.355292 +0.124859 0
+0.212377 +0.074636 0
+0.266009 +0.093483 0
+0.221264 +0.077757 0
+0.275015 +0.096645 0
+0.319768 +0.112373 0
+0.366839 +0.128913 0
+0.328709 +0.115512 0
+0.374660 +0.131658 0
+0.226923 +0.079743 0
+0.280596 +0.098603 0
+0.229163 +0.080528 0
+0.282300 +0.099199 0
+0.333732 +0.117273 0
+0.379031 +0.133190 0
+0.334434 +0.117517 0
+0.377959 +0.132809 0
+0.228957 +0.080453 0
+0.281090 +0.098771 0
+0.226526 +0.079597 0
+0.275644 +0.096855 0
+0.330287 +0.116056 0
+0.369833 +0.129950 0
+0.320751 +0.112702 0
+0.356872 +0.125392 0
+0.221442 +0.077808 0
+0.266311 +0.093572 0
+0.212267 +0.074582 0
+0.251970 +0.088531 0
+0.306392 +0.107654 0
+0.338068 +0.118782 0
+0.288305 +0.101296 0
+0.315843 +0.110970 0
+0.199570 +0.070119 0
+0.235396 +0.082705 0
+0.184164 +0.064704 0
+0.214731 +0.075442 0
+0.266573 +0.093657 0
+0.289941 +0.101866 0
+0.241197 +0.084739 0
+0.260465 +0.091507 0
+0.165798 +0.058249 0
+0.191539 +0.067292 0
+0.143867 +0.050543 0
+0.212128 +0.074524 0
+0.054034 +0.018994 0
+0.088860 +0.031236 0
+0.029815 +0.010480 0
+0.035320 +0.012415 0
+0.066494 +0.023373 0
+0.104811 +0.036841 0
+0.077335 +0.027182 0
+0.120106 +0.042215 0
+0.040439 +0.014213 0
+0.044934 +0.015793 0
+0.087170 +0.030638 0
+0.133384 +0.046880 0
+0.095774 +0.033660 0
+0.145923 +0.051285 0
+0.048834 +0.017163 0
+0.052227 +0.018354 0
+0.103261 +0.036290 0
+0.156159 +0.054880 0
+0.109826 +0.038596 0
+0.164289 +0.057736 0
+0.055227 +0.019408 0
+0.057044 +0.020046 0
+0.114794 +0.040341 0
+0.169902 +0.059706 0
+0.117533 +0.041302 0
+0.172590 +0.060649 0
+0.057870 +0.020336 0
+0.058486 +0.020552 0
+0.119021 +0.041824 0
+0.173559 +0.060988 0
+0.119407 +0.041958 0
+0.172734 +0.060696 0
+0.058248 +0.020468 0
+0.056926 +0.020002 0
+0.117803 +0.041394 0
+0.169533 +0.059570 0
+0.114481 +0.040225 0
+0.164368 +0.057753 0
+0.055013 +0.019330 0
+0.052544 +0.018462 0
+0.109982 +0.038643 0
+0.155896 +0.054775 0
+0.103417 +0.036336 0
+0.145138 +0.050993 0
+0.048613 +0.017080 0
+0.044305 +0.015566 0
+0.095006 +0.033379 0
+0.132127 +0.046421 0
+0.085330 +0.029979 0
+0.117145 +0.041156 0
+0.039133 +0.013748 0
+0.072916 +0.025617 0
+0.349577 +0.122800 0
+0.305008 +0.107131 0
+0.231778 +0.081392 0
+0.137365 +0.048212 0
+0.032597 +0.011396 0
-0.070098 -0.024689 0
-0.158826 -0.055863 0
-0.224190 -0.078825 0
+0.257251 +0.090367 0
+0.228365 +0.080209 0
+0.176325 +0.061917 0
+0.106369 +0.037332 0
+0.028530 +0.009979 0
-0.048695 -0.017156 0
-0.115121 -0.040493 0
-0.162979 -0.057304 0
+0.136424 +0.047922 0
+0.121850 +0.042797 0
+0.093670 +0.032892 0
+0.057657 +0.020235 0
+0.016545 +0.005788 0
-0.024106 -0.008495 0
-0.059861 -0.021057 0
-0.085574 -0.030089 0
+0.359498 +0.126290 0
+0.379570 +0.133336 0
+0.393496 +0.138234 0
+0.330957 +0.116253 0
+0.326791 +0.114783 0
+0.357161 +0.125459 0
+0.271443 +0.095333 0
+0.245247 +0.086123 0
+0.289216 +0.101577 0
+0.186527 +0.065489 0
+0.142997 +0.050190 0
+0.196084 +0.068846 0
+0.085525 +0.029995 0
+0.030947 +0.010815 0
+0.087442 +0.030667 0
-0.019815 -0.007021 0
-0.078624 -0.027686 0
-0.024918 -0.008816 0
-0.116924 -0.041141 0
-0.173988 -0.061193 0
-0.128751 -0.045299 0
-0.195024 -0.068579 0
-0.245617 -0.086357 0
-0.213275 -0.074996 0
-0.246111 -0.086524 0
-0.270360 -0.095048 0
+0.261618 +0.091905 0
+0.308097 +0.108228 0
+0.314996 +0.110657 0
+0.246250 +0.086497 0
+0.271580 +0.095389 0
+0.293692 +0.103163 0
+0.205201 +0.072067 0
+0.208329 +0.073157 0
+0.243130 +0.085388 0
+0.143299 +0.050310 0
+0.124987 +0.043867 0
+0.168672 +0.059219 0
+0.067940 +0.023828 0
+0.031733 +0.011097 0
+0.078936 +0.027684 0
-0.010866 -0.003864 0
-0.060015 -0.021141 0
-0.015070 -0.005349 0
-0.084008 -0.029563 0
-0.139082 -0.048920 0
-0.101628 -0.035761 0
-0.141877 -0.049892 0
-0.196409 -0.069058 0
-0.170885 -0.060092 0
-0.178039 -0.062593 0
-0.214959 -0.075572 0
+0.137398 +0.048267 0
+0.199885 +0.070215 0
+0.202122 +0.071004 0
+0.131343 +0.046135 0
+0.178348 +0.062641 0
+0.192091 +0.067473 0
+0.109894 +0.038594 0
+0.138039 +0.048473 0
+0.160564 +0.056390 0
+0.077110 +0.027072 0
+0.084010 +0.029485 0
+0.112542 +0.039512 0
+0.037532 +0.013163 0
+0.023365 +0.008173 0
+0.054184 +0.019003 0
-0.004219 -0.001508 0
-0.036703 -0.012933 0
-0.007234 -0.002579 0
-0.043198 -0.015203 0
-0.088658 -0.031186 0
-0.064240 -0.022607 0
-0.074565 -0.026222 0
-0.126050 -0.044320 0
-0.109756 -0.038597 0
-0.093233 -0.032778 0
-0.137253 -0.048254 0
+0.070044 +0.024605 0
+0.070222 +0.024669 0
+0.062519 +0.021958 0
+0.067423 +0.023683 0
+0.048030 +0.016866 0
+0.055891 +0.019629 0
+0.029538 +0.010367 0
+0.039294 +0.013795 0
+0.008704 +0.003045 0
+0.019154 +0.006718 0
-0.012006 -0.004232 0
-0.001826 -0.000655 0
-0.030348 -0.010676 0
-0.021616 -0.007608 0
-0.043583 -0.015324 0
-0.037719 -0.013265 0
-0.047389 -0.016660 0
+0.397130 +0.139513 0
+0.406050 +0.142644 0
+0.361221 +0.126898 0
+0.377914 +0.132760 0
+0.355709 +0.124957 0
+0.366055 +0.128589 0
+0.387653 +0.136179 0
+0.389981 +0.136994 0
+0.369428 +0.129771 0
+0.365477 +0.128380 0
+0.341364 +0.119912 0
+0.345596 +0.121396 0
+0.319041 +0.112064 0
+0.317390 +0.111480 0
+0.342956 +0.120465 0
+0.333112 +0.117004 0
+0.308885 +0.108489 0
+0.293661 +0.103139 0
+0.289145 +0.101555 0
+0.281771 +0.098961 0
+0.252432 +0.088651 0
+0.239790 +0.084206 0
+0.267968 +0.094109 0
+0.248062 +0.087113 0
+0.221252 +0.077691 0
+0.197471 +0.069333 0
+0.209775 +0.073659 0
+0.192415 +0.067557 0
+0.162416 +0.057016 0
+0.141040 +0.049502 0
+0.169943 +0.059659 0
+0.143181 +0.050255 0
+0.115443 +0.040507 0
+0.086588 +0.030368 0
+0.111702 +0.039194 0
+0.087081 +0.030541 0
+0.059098 +0.020708 0
+0.032090 +0.011217 0
+0.059208 +0.020746 0
+0.029179 +0.010194 0
+0.002838 +0.000938 0
-0.027558 -0.009743 0
+0.006229 +0.002131 0
-0.022329 -0.007905 0
-0.045344 -0.015991 0
-0.074586 -0.026267 0
-0.052145 -0.018382 0
-0.082158 -0.028928 0
-0.104227 -0.036682 0
-0.133241 -0.046877 0
-0.094055 -0.033106 0
-0.123292 -0.043380 0
-0.138606 -0.048759 0
-0.167054 -0.058756 0
-0.152072 -0.053493 0
-0.179538 -0.063144 0
-0.194458 -0.068385 0
-0.219957 -0.077344 0
-0.177766 -0.062517 0