# vtk DataFile Version 2.0
MyTitle
ASCII
DATASET UNSTRUCTURED_GRID
POINTS 2773 double
0.800000 -0.800000 0.000000
0.800000 0.800000 0.000000
-0.800000 0.800000 0.000000
-0.800000 -0.800000 0.000000
1.414214 -1.414214 0.000000
1.414214 1.414214 0.000000
-1.414214 1.414214 0.000000
-1.414214 -1.414214 0.000000
0.800000 -0.711111 0.000000
0.800000 -0.622222 0.000000
0.800000 -0.533333 0.000000
0.800000 -0.444444 0.000000
0.800000 -0.355556 0.000000
0.800000 -0.266667 0.000000
0.800000 -0.177778 0.000000
0.800000 -0.088889 0.000000
0.800000 -0.000000 0.000000
0.800000 0.088889 0.000000
0.800000 0.177778 0.000000
0.800000 0.266667 0.000000
0.800000 0.355556 0.000000
0.800000 0.444444 0.000000
0.800000 0.533333 0.000000
0.800000 0.622222 0.000000
0.800000 0.711111 0.000000
0.800000 -0.755556 0.000000
0.800000 -0.666667 0.000000
0.800000 -0.577778 0.000000
0.800000 -0.488889 0.000000
0.800000 -0.400000 0.000000
0.800000 -0.311111 0.000000
0.800000 -0.222222 0.000000
0.800000 -0.133333 0.000000
0.800000 -0.044444 0.000000
0.800000 0.044444 0.000000
0.800000 0.133333 0.000000
0.800000 0.222222 0.000000
0.800000 0.311111 0.000000
0.800000 0.400000 0.000000
0.800000 0.488889 0.000000
0.800000 0.577778 0.000000
0.800000 0.666667 0.000000
0.800000 0.755556 0.000000
0.711111 0.800000 0.000000
0.622222 0.800000 0.000000
0.533333 0.800000 0.000000
0.444444 0.800000 0.000000
0.355556 0.800000 0.000000
0.266667 0.800000 0.000000
0.177778 0.800000 0.000000
0.088889 0.800000 0.000000
0.000000 0.800000 0.000000
-0.088889 0.800000 0.000000
-0.177778 0.800000 0.000000
-0.266667 0.800000 0.000000
-0.355556 0.800000 0.000000
-0.444444 0.800000 0.000000
-0.533333 0.800000 0.000000
-0.622222 0.800000 0.000000
-0.711111 0.800000 0.000000
0.755556 0.800000 0.000000
0.666667 0.800000 0.000000
0.577778 0.800000 0.000000
0.488889 0.800000 0.000000
0.400000 0.800000 0.000000
0.311111 0.800000 0.000000
0.222222 0.800000 0.000000
0.133333 0.800000 0.000000
0.044444 0.800000 0.000000
-0.044444 0.800000 0.000000
-0.133333 0.800000 0.000000
-0.222222 0.800000 0.000000
-0.311111 0.800000 0.000000
-0.400000 0.800000 0.000000
-0.488889 0.800000 0.000000
-0.577778 0.800000 0.000000
-0.666667 0.800000 0.000000
-0.755556 0.800000 0.000000
-0.800000 0.711111 0.000000
-0.800000 0.622222 0.000000
-0.800000 0.533333 0.000000
-0.800000 0.444444 0.000000
-0.800000 0.355556 0.000000
-0.800000 0.266667 0.000000
-0.800000 0.177778 0.000000
-0.800000 0.088889 0.000000
-0.800000 0.000000 0.000000
-0.800000 -0.088889 0.000000
-0.800000 -0.177778 0.000000
-0.800000 -0.266667 0.000000
-0.800000 -0.355556 0.000000
-0.800000 -0.444444 0.000000
-0.800000 -0.533333 0.000000
-0.800000 -0.622222 0.000000
-0.800000 -0.711111 0.000000
-0.800000 0.755556 0.000000
-0.800000 0.666667 0.000000
-0.800000 0.577778 0.000000
-0.800000 0.488889 0.000000
-0.800000 0.400000 0.000000
-0.800000 0.311111 0.000000
-0.800000 0.222222 0.000000
-0.800000 0.133333 0.000000
-0.800000 0.044444 0.000000
-0.800000 -0.044444 0.000000
-0.800000 -0.133333 0.000000
-0.800000 -0.222222 0.000000
-0.800000 -0.311111 0.000000
-0.800000 -0.400000 0.000000
-0.800000 -0.488889 0.000000
-0.800000 -0.577778 0.000000
-0.800000 -0.666667 0.000000
-0.800000 -0.755556 0.000000
-0.711111 -0.800000 0.000000
-0.622222 -0.800000 0.000000
-0.533333 -0.800000 0.000000
-0.444444 -0.800000 0.000000
-0.355556 -0.800000 0.000000
-0.266667 -0.800000 0.000000
-0.177778 -0.800000 0.000000
-0.088889 -0.800000 0.000000
-0.000000 -0.800000 0.000000
0.088889 -0.800000 0.000000
0.177778 -0.800000 0.000000
0.266667 -0.800000 0.000000
0.355556 -0.800000 0.000000
0.444444 -0.800000 0.000000
0.533333 -0.800000 0.000000
0.622222 -0.800000 0.000000
0.711111 -0.800000 0.000000
-0.755556 -0.800000 0.000000
-0.666667 -0.800000 0.000000
-0.577778 -0.800000 0.000000
-0.488889 -0.800000 0.000000
-0.400000 -0.800000 0.000000
-0.311111 -0.800000 0.000000
-0.222222 -0.800000 0.000000
-0.133333 -0.800000 0.000000
-0.044444 -0.800000 0.000000
0.044444 -0.800000 0.000000
0.133333 -0.800000 0.000000
0.222222 -0.800000 0.000000
0.311111 -0.800000 0.000000
0.400000 -0.800000 0.000000
0.488889 -0.800000 0.000000
0.577778 -0.800000 0.000000
0.666667 -0.800000 0.000000
0.755556 -0.800000 0.000000
1.532089 -1.285575 0.000000
1.638304 -1.147153 0.000000
1.732051 -1.000000 0.000000
1.812616 -0.845237 0.000000
1.879385 -0.684040 0.000000
1.931852 -0.517638 0.000000
1.969616 -0.347296 0.000000
1.992389 -0.174311 0.000000
2.000000 -0.000000 0.000000
1.992389 0.174311 0.000000
1.969616 0.347296 0.000000
1.931852 0.517638 0.000000
1.879385 0.684040 0.000000
1.812616 0.845237 0.000000
1.732051 1.000000 0.000000
1.638304 1.147153 0.000000
1.532089 1.285575 0.000000
1.474555 -1.351180 0.000000
1.586707 -1.217523 0.000000
1.686783 -1.074599 0.000000
1.774022 -0.923497 0.000000
1.847759 -0.765367 0.000000
1.907434 -0.601412 0.000000
1.952592 -0.432879 0.000000
1.982890 -0.261052 0.000000
1.998096 -0.087239 0.000000
1.998096 0.087239 0.000000
1.982890 0.261052 0.000000
1.952592 0.432879 0.000000
1.907434 0.601412 0.000000
1.847759 0.765367 0.000000
1.774022 0.923497 0.000000
1.686783 1.074599 0.000000
1.586707 1.217523 0.000000
1.474555 1.351180 0.000000
1.285575 1.532089 0.000000
1.147153 1.638304 0.000000
1.000000 1.732051 0.000000
0.845237 1.812616 0.000000
0.684040 1.879385 0.000000
0.517638 1.931852 0.000000
0.347296 1.969616 0.000000
0.174311 1.992389 0.000000
0.000000 2.000000 0.000000
-0.174311 1.992389 0.000000
-0.347296 1.969616 0.000000
-0.517638 1.931852 0.000000
-0.684040 1.879385 0.000000
-0.845237 1.812616 0.000000
-1.000000 1.732051 0.000000
-1.147153 1.638304 0.000000
-1.285575 1.532089 0.000000
1.351180 1.474555 0.000000
1.217523 1.586707 0.000000
1.074599 1.686783 0.000000
0.923497 1.774022 0.000000
0.765367 1.847759 0.000000
0.601412 1.907434 0.000000
0.432879 1.952592 0.000000
0.261052 1.982890 0.000000
0.087239 1.998096 0.000000
-0.087239 1.998096 0.000000
-0.261052 1.982890 0.000000
-0.432879 1.952592 0.000000
-0.601412 1.907434 0.000000
-0.765367 1.847759 0.000000
-0.923497 1.774022 0.000000
-1.074599 1.686783 0.000000
-1.217523 1.586707 0.000000
-1.351180 1.474555 0.000000
-1.532089 1.285575 0.000000
-1.638304 1.147153 0.000000
-1.732051 1.000000 0.000000
-1.812616 0.845237 0.000000
-1.879385 0.684040 0.000000
-1.931852 0.517638 0.000000
-1.969616 0.347296 0.000000
-1.992389 0.174311 0.000000
-2.000000 0.000000 0.000000
-1.992389 -0.174311 0.000000
-1.969616 -0.347296 0.000000
-1.931852 -0.517638 0.000000
-1.879385 -0.684040 0.000000
-1.812616 -0.845237 0.000000
-1.732051 -1.000000 0.000000
-1.638304 -1.147153 0.000000
-1.532089 -1.285575 0.000000
-1.474555 1.351180 0.000000
-1.586707 1.217523 0.000000
-1.686783 1.074599 0.000000
-1.774022 0.923497 0.000000
-1.847759 0.765367 0.000000
-1.907434 0.601412 0.000000
-1.952592 0.432879 0.000000
-1.982890 0.261052 0.000000
-1.998096 0.087239 0.000000
-1.998096 -0.087239 0.000000
-1.982890 -0.261052 0.000000
-1.952592 -0.432879 0.000000
-1.907434 -0.601412 0.000000
-1.847759 -0.765367 0.000000
-1.774022 -0.923497 0.000000
-1.686783 -1.074599 0.000000
-1.586707 -1.217523 0.000000
-1.474555 -1.351180 0.000000
-1.285575 -1.532089 0.000000
-1.147153 -1.638304 0.000000
-1.000000 -1.732051 0.000000
-0.845237 -1.812616 0.000000
-0.684040 -1.879385 0.000000
-0.517638 -1.931852 0.000000
-0.347296 -1.969616 0.000000
-0.174311 -1.992389 0.000000
-0.000000 -2.000000 0.000000
0.174311 -1.992389 0.000000
0.347296 -1.969616 0.000000
0.517638 -1.931852 0.000000
0.684040 -1.879385 0.000000
0.845237 -1.812616 0.000000
1.000000 -1.732051 0.000000
1.147153 -1.638304 0.000000
1.285575 -1.532089 0.000000
-1.351180 -1.474555 0.000000
-1.217523 -1.586707 0.000000
-1.074599 -1.686783 0.000000
-0.923497 -1.774022 0.000000
-0.765367 -1.847759 0.000000
-0.601412 -1.907434 0.000000
-0.432879 -1.952592 0.000000
-0.261052 -1.982890 0.000000
-0.087239 -1.998096 0.000000
0.087239 -1.998096 0.000000
0.261052 -1.982890 0.000000
0.432879 -1.952592 0.000000
0.601412 -1.907434 0.000000
0.765367 -1.847759 0.000000
0.923497 -1.774022 0.000000
1.074599 -1.686783 0.000000
1.217523 -1.586707 0.000000
1.351180 -1.474555 0.000000
0.876777 -0.876777 0.000000
0.953553 -0.953553 0.000000
1.030330 -1.030330 0.000000
1.107107 -1.107107 0.000000
1.183883 -1.183883 0.000000
1.260660 -1.260660 0.000000
1.337437 -1.337437 0.000000
0.838388 -0.838388 0.000000
0.915165 -0.915165 0.000000
0.991942 -0.991942 0.000000
1.068718 -1.068718 0.000000
1.145495 -1.145495 0.000000
1.222272 -1.222272 0.000000
1.299049 -1.299049 0.000000
1.375825 -1.375825 0.000000
0.876777 0.876777 0.000000
0.953553 0.953553 0.000000
1.030330 1.030330 0.000000
1.107107 1.107107 0.000000
1.183883 1.183883 0.000000
1.260660 1.260660 0.000000
1.337437 1.337437 0.000000
0.838388 0.838388 0.000000
0.915165 0.915165 0.000000
0.991942 0.991942 0.000000
1.068718 1.068718 0.000000
1.145495 1.145495 0.000000
1.222272 1.222272 0.000000
1.299049 1.299049 0.000000
1.375825 1.375825 0.000000
-0.876777 0.876777 0.000000
-0.953553 0.953553 0.000000
-1.030330 1.030330 0.000000
-1.107107 1.107107 0.000000
-1.183883 1.183883 0.000000
-1.260660 1.260660 0.000000
-1.337437 1.337437 0.000000
-0.838388 0.838388 0.000000
-0.915165 0.915165 0.000000
-0.991942 0.991942 0.000000
-1.068718 1.068718 0.000000
-1.145495 1.145495 0.000000
-1.222272 1.222272 0.000000
-1.299049 1.299049 0.000000
-1.375825 1.375825 0.000000
-0.876777 -0.876777 0.000000
-0.953553 -0.953553 0.000000
-1.030330 -1.030330 0.000000
-1.107107 -1.107107 0.000000
-1.183883 -1.183883 0.000000
-1.260660 -1.260660 0.000000
-1.337437 -1.337437 0.000000
-0.838388 -0.838388 0.000000
-0.915165 -0.915165 0.000000
-0.991942 -0.991942 0.000000
-1.068718 -1.068718 0.000000
-1.145495 -1.145495 0.000000
-1.222272 -1.222272 0.000000
-1.299049 -1.299049 0.000000
-1.375825 -1.375825 0.000000
1.004570 -0.750138 0.000000
1.046902 -0.541729 0.000000
1.076366 -0.327598 0.000000
1.091686 -0.109645 0.000000
1.091564 0.109637 0.000000
1.076182 0.327573 0.000000
[...]
POINT_DATA 2773
VECTORS sol double
+0.324124 +0.150006 0
-0.361184 -0.167159 0
-0.324124 -0.150006 0
+0.361184 +0.167159 0
+0.000000 +0.000000 0
+0.000000 +0.000000 0
+0.000000 +0.000000 0
+0.000000 +0.000000 0
+0.359119 +0.166202 0
+0.377718 +0.174810 0
+0.377579 +0.174746 0
+0.357623 +0.165510 0
+0.318128 +0.147232 0
+0.260726 +0.120666 0
+0.188296 +0.087145 0
+0.104765 +0.048486 0
+0.014835 +0.006866 0
-0.076350 -0.035335 0
-0.163572 -0.075702 0
-0.241906 -0.111955 0
-0.307067 -0.142112 0
-0.355710 -0.164624 0
-0.385653 -0.178482 0
-0.396019 -0.183280 0
-0.387277 -0.179235 0
+0.343480 +0.158964 0
+0.370643 +0.171535 0
+0.380091 +0.175908 0
+0.370096 +0.171282 0
+0.340249 +0.157469 0
+0.291515 +0.134915 0
+0.226166 +0.104671 0
+0.147638 +0.068328 0
+0.060284 +0.027900 0
-0.030929 -0.014314 0
-0.120775 -0.055895 0
-0.204137 -0.094475 0
-0.276368 -0.127904 0
-0.333622 -0.154402 0
-0.373108 -0.172676 0
-0.393288 -0.182016 0
-0.393957 -0.182326 0
-0.376244 -0.174128 0
-0.280525 -0.129829 0
-0.190130 -0.087994 0
-0.095288 -0.044100 0
-0.001603 -0.000742 0
+0.085362 +0.039505 0
+0.160418 +0.074242 0
+0.219075 +0.101389 0
+0.257818 +0.119319 0
+0.274325 +0.126959 0
+0.267612 +0.123853 0
+0.238104 +0.110196 0
+0.187600 +0.086823 0
+0.119172 +0.055154 0
+0.036974 +0.017112 0
-0.054013 -0.024997 0
-0.148287 -0.068627 0
-0.240161 -0.111147 0
-0.322395 -0.149207 0
-0.236233 -0.109331 0
-0.142923 -0.066146 0
-0.047951 -0.022193 0
+0.043057 +0.019926 0
+0.124680 +0.057702 0
+0.192044 +0.088879 0
+0.241113 +0.111588 0
+0.268947 +0.124470 0
+0.273880 +0.126753 0
+0.255629 +0.118307 0
+0.215314 +0.099649 0
+0.155391 +0.071916 0
+0.079499 +0.036793 0
-0.007759 -0.003590 0
-0.101099 -0.046789 0
-0.194884 -0.090193 0
-0.283473 -0.131192 0
-0.359119 -0.166202 0
-0.377717 -0.174809 0
-0.377579 -0.174745 0
-0.357623 -0.165510 0
-0.318128 -0.147232 0
-0.260726 -0.120666 0
-0.188296 -0.087145 0
-0.104765 -0.048486 0
-0.014835 -0.006866 0
+0.076350 +0.035335 0
+0.163572 +0.075702 0
+0.241906 +0.111955 0
+0.307067 +0.142112 0
+0.355710 +0.164625 0
+0.385653 +0.178482 0
+0.396019 +0.183280 0
+0.387277 +0.179235 0
-0.343480 -0.158964 0
-0.370642 -0.171535 0
-0.380091 -0.175908 0
-0.370095 -0.171282 0
-0.340249 -0.157469 0
-0.291514 -0.134915 0
-0.226166 -0.104671 0
-0.147639 -0.068328 0
-0.060285 -0.027901 0
+0.030929 +0.014314 0
+0.120775 +0.055895 0
+0.204137 +0.094475 0
+0.276368 +0.127905 0
+0.333621 +0.154402 0
+0.373108 +0.172677 0
+0.393288 +0.182016 0
+0.393957 +0.182326 0
+0.376244 +0.174129 0
+0.280525 +0.129829 0
+0.190130 +0.087994 0
+0.095288 +0.044101 0
+0.001603 +0.000742 0
-0.085362 -0.039505 0
-0.160418 -0.074242 0
-0.219075 -0.101389 0
-0.257818 -0.119319 0
-0.274324 -0.126959 0
-0.267612 -0.123853 0
-0.238104 -0.110196 0
-0.187599 -0.086823 0
-0.119172 -0.055154 0
-0.036973 -0.017112 0
+0.054014 +0.024997 0
+0.148287 +0.068628 0
+0.240161 +0.111147 0
+0.322395 +0.149207 0
+0.236233 +0.109331 0
+0.142923 +0.066146 0
+0.047951 +0.022193 0
-0.043057 -0.019926 0
-0.124680 -0.057702 0
-0.192044 -0.088879 0
-0.241113 -0.111588 0
-0.268947 -0.124470 0
-0.273879 -0.126753 0
-0.255629 -0.118307 0
-0.215314 -0.099649 0
-0.155391 -0.071916 0
-0.079499 -0.036793 0
+0.007759 +0.003590 0
+0.101100 +0.046789 0
+0.194885 +0.090193 0
+0.283473 +0.131192 0
+0.000000 +0.000000 0
+0.000000 +0.000000 0
+0.000000 +0.000000 0
+0.000000 +0.000000 0
+0.000000 +0.000000 0
+0.000000 +0.000000 0
+0.000000 +0.000000 0
+0.000000 +0.000000 0
+0.000000 +0.000000 0
+0.000000 +0.000000 0
+0.000000 +0.000000 0
+0.000000 +0.000000 0
+0.000000 +0.000000 0
+0.000000 +0.000000 0
+0.000000 +0.000000 0
+0.000000 +0.000000 0
+0.000000 +0.000000 0
+0.000000 +0.000000 0
+0.000000 +0.000000 0
+0.000000 +0.000000 0
+0.000000 +0.000000 0
+0.000000 +0.000000 0
+0.000000 +0.000000 0
+0.000000 +0.000000 0
+0.000000 +0.000000 0
+0.000000 +0.000000 0
+0.000000 +0.000000 0
+0.000000 +0.000000 0
+0.000000 +0.000000 0
+0.000000 +0.000000 0
+0.000000 +0.000000 0
+0.000000 +0.000000 0
+0.000000 +0.000000 0
+0.000000 +0.000000 0
+0.000000 +0.000000 0
+0.000000 +0.000000 0
+0.000000 +0.000000 0
+0.000000 +0.000000 0
+0.000000 +0.000000 0
+0.000000 +0.000000 0
+0.000000 +0.000000 0
+0.000000 +0.000000 0
+0.000000 +0.000000 0
+0.000000 +0.000000 0
+0.000000 +0.000000 0
+0.000000 +0.000000 0
+0.000000 +0.000000 0
+0.000000 +0.000000 0
+0.000000 +0.000000 0
+0.000000 +0.000000 0
+0.000000 +0.000000 0
+0.000000 +0.000000 0
+0.000000 +0.000000 0
+0.000000 +0.000000 0
+0.000000 +0.000000 0
+0.000000 +0.000000 0
+0.000000 +0.000000 0
+0.000000 +0.000000 0
+0.000000 +0.000000 0
+0.000000 +0.000000 0
+0.000000 +0.000000 0
+0.000000 +0.000000 0
+0.000000 +0.000000 0
+0.000000 +0.000000 0
+0.000000 +0.000000 0
+0.000000 +0.000000 0
+0.000000 +0.000000 0
+0.000000 +0.000000 0
+0.000000 +0.000000 0
+0.000000 +0.000000 0
+0.000000 +0.000000 0
+0.000000 +0.000000 0
+0.000000 +0.000000 0
+0.000000 +0.000000 0
+0.000000 +0.000000 0
+0.000000 +0.000000 0
+0.000000 +0.000000 0
+0.000000 +0.000000 0
+0.000000 +0.000000 0
+0.000000 +0.000000 0
+0.000000 +0.000000 0
+0.000000 +0.000000 0
+0.000000 +0.000000 0
+0.000000 +0.000000 0
+0.000000 +0.000000 0
+0.000000 +0.000000 0
+0.000000 +0.000000 0
+0.000000 +0.000000 0
+0.000000 +0.000000 0
+0.000000 +0.000000 0
+0.000000 +0.000000 0
+0.000000 +0.000000 0
+0.000000 +0.000000 0
+0.000000 +0.000000 0
+0.000000 +0.000000 0
+0.000000 +0.000000 0
+0.000000 +0.000000 0
+0.000000 +0.000000 0
+0.000000 +0.000000 0
+0.000000 +0.000000 0
+0.000000 +0.000000 0
+0.000000 +0.000000 0
+0.000000 +0.000000 0
+0.000000 +0.000000 0
+0.000000 +0.000000 0
+0.000000 +0.000000 0
+0.000000 +0.000000 0
+0.000000 +0.000000 0
+0.000000 +0.000000 0
+0.000000 +0.000000 0
+0.000000 +0.000000 0
+0.000000 +0.000000 0
+0.000000 +0.000000 0
+0.000000 +0.000000 0
+0.000000 +0.000000 0
+0.000000 +0.000000 0
+0.000000 +0.000000 0
+0.000000 +0.000000 0
+0.000000 +0.000000 0
+0.000000 +0.000000 0
+0.000000 +0.000000 0
+0.000000 +0.000000 0
+0.000000 +0.000000 0
+0.000000 +0.000000 0
+0.000000 +0.000000 0
+0.000000 +0.000000 0
+0.000000 +0.000000 0
+0.000000 +0.000000 0
+0.000000 +0.000000 0
+0.000000 +0.000000 0
+0.000000 +0.000000 0
+0.000000 +0.000000 0
+0.000000 +0.000000 0
+0.000000 +0.000000 0
+0.000000 +0.000000 0
+0.000000 +0.000000 0
+0.000000 +0.000000 0
+0.000000 +0.000000 0
+0.000000 +0.000000 0
+0.000000 +0.000000 0
+0.347105 +0.160641 0
+0.351293 +0.162580 0
+0.334494 +0.154805 0
+0.296512 +0.137227 0
+0.239299 +0.110748 0
+0.166835 +0.077212 0
+0.084790 +0.039241 0
+0.337737 +0.156306 0
+0.351727 +0.162781 0
+0.345587 +0.159939 0
+0.318094 +0.147215 0
+0.270127 +0.125016 0
+0.204672 +0.094723 0
+0.126621 +0.058601 0
+0.042293 +0.019573 0
-0.386793 -0.179011 0
-0.391460 -0.181170 0
-0.372740 -0.172507 0
-0.330416 -0.152919 0
-0.266661 -0.123412 0
-0.185911 -0.086041 0
-0.094486 -0.043729 0
-0.376354 -0.174180 0
-0.391943 -0.181394 0
-0.385102 -0.178228 0
-0.354465 -0.164049 0
-0.301012 -0.139311 0
-0.228075 -0.105555 0
-0.141098 -0.065301 0
-0.047129 -0.021812 0
-0.347104 -0.160641 0
-0.351292 -0.162579 0
-0.334493 -0.154805 0
-0.296513 -0.137227 0
-0.239299 -0.110749 0
-0.166834 -0.077212 0
-0.084791 -0.039241 0
-0.337737 -0.156306 0
-0.351726 -0.162780 0
-0.345587 -0.159939 0
-0.318094 -0.147215 0
-0.270125 -0.125015 0
-0.204672 -0.094723 0
-0.126621 -0.058601 0
-0.042293 -0.019573 0
+0.386793 +0.179011 0
+0.391461 +0.181171 0
+0.372740 +0.172507 0
+0.330416 +0.152919 0
+0.266662 +0.123413 0
+0.185911 +0.086041 0
+0.094485 +0.043728 0
+0.376355 +0.174180 0
+0.391944 +0.181394 0
+0.385102 +0.178228 0
+0.354467 +0.164050 0
+0.301011 +0.139310 0
+0.228075 +0.105555 0
+0.141099 +0.065302 0
+0.047129 +0.021812 0
+0.479395 +0.221866 0
+0.501640 +0.232162 0
+0.389783 +0.180394 0
+0.162890 +0.075387 0
-0.114445 -0.052965 0
-0.356800 -0.165129 0
-0.494172 -0.228705 0
-0.498900 -0.230894 0
+0.452333 +0.209342 0
+0.500780 +0.231764 0
+0.402082 +0.186087 0
+0.171033 +0.079156 0
-0.117319 -0.054295 0
-0.364769 -0.168817 0
-0.490134 -0.226837 0
-0.468488 -0.216819 0
+0.279266 +0.129246 0
+0.317286 +0.146842 0
+0.257710 +0.119270 0
+0.109860 +0.050844 0
-0.073359 -0.033950 0
-0.230449 -0.106653 0
-0.309149 -0.143076 0
-0.288557 -0.133546 0
+0.425360 +0.196858 0
+0.441121 +0.204153 0
+0.403525 +0.186753 0
+0.506378 +0.234355 0
+0.442082 +0.204598 0
+0.454848 +0.210506 0
+0.462347 +0.213977 0
+0.334328 +0.154729 0
+0.401274 +0.185712 0
+0.287443 +0.133031 0
+0.137381 +0.063581 0
+0.244325 +0.113076 0
+0.025251 +0.011687 0
-0.098140 -0.045419 0
+0.020469 +0.009474 0
-0.244995 -0.113384 0
-0.307886 -0.142491 0
-0.210035 -0.097205 0
-0.441388 -0.204276 0
-0.437323 -0.202396 0
-0.385340 -0.178337 0
-0.513024 -0.237431 0
-0.460758 -0.213242 0
-0.462626 -0.214106 0
-0.456451 -0.211249 0
-0.434038 -0.200876 0
+0.383651 +0.177555 0
+0.484440 +0.224201 0
+0.419481 +0.194138 0
+0.493083 +0.228202 0
+0.523740 +0.242390 0
+0.521333 +0.241276 0
+0.470099 +0.217565 0
+0.415058 +0.192092 0
+0.488248 +0.225965 0
+0.299538 +0.138629 0
+0.175569 +0.081255 0
+0.308128 +0.142604 0
+0.028018 +0.012968 0
-0.121644 -0.056296 0
+0.028127 +0.013018 0
-0.252344 -0.116786 0
-0.378064 -0.174970 0
-0.260815 -0.120706 0
-0.446156 -0.206483 0
-0.514150 -0.237952 0
-0.464297 -0.214879 0
-0.496548 -0.229805 0
-0.502869 -0.232731 0
-0.526302 -0.243576 0
-0.410292 -0.189886 0
-0.449305 -0.207941 0
+0.230392 +0.106626 0
+0.383050 +0.177277 0
+0.319810 +0.148010 0
+0.310813 +0.143846 0
+0.431216 +0.199569 0
+0.422758 +0.195655 0
+0.300962 +0.139287 0
+0.348935 +0.161490 0
+0.407476 +0.188582 0
+0.191832 +0.088782 0
+0.148928 +0.068926 0
+0.260591 +0.120604 0
+0.018572 +0.008596 0
-0.101100 -0.046789 0
+0.024916 +0.011532 0
-0.158631 -0.073415 0
-0.315408 -0.145972 0
-0.218198 -0.100983 0
-0.283076 -0.131009 0
-0.420941 -0.194814 0
-0.384616 -0.178002 0
-0.311541 -0.144183 0
-0.396152 -0.183342 0
-0.424772 -0.196587 0
-0.245898 -0.113803 0
-0.341607 -0.158098 0
+0.149359 +0.069124 0
+0.121984 +0.056455 0
+0.170072 +0.078711 0
+0.166379 +0.077001 0
+0.136865 +0.063342 0
+0.159945 +0.074023 0
+0.058739 +0.027185 0
+0.102648 +0.047507 0
-0.039127 -0.018108 0
+0.010055 +0.004654 0
-0.122880 -0.056869 0
-0.084957 -0.039318 0
-0.166003 -0.076827 0
-0.150472 -0.069639 0
-0.153429 -0.071008 0
-0.165708 -0.076690 0
-0.129487 -0.059927 0
+0.377327 +0.174628 0
+0.383758 +0.177605 0
+0.390343 +0.180652 0
+0.417659 +0.193295 0
+0.455311 +0.210720 0
+0.463992 +0.214738 0
+0.424975 +0.196680 0
+0.411976 +0.190665 0
+0.451102 +0.208772 0
+0.418695 +0.193774 0
+0.496545 +0.229804 0
+0.484623 +0.224286 0
+0.508095 +0.235149 0
+0.475878 +0.220239 0
+0.451812 +0.209101 0
+0.402116 +0.186102 0
+0.424996 +0.196691 0
+0.361604 +0.167353 0
+0.486177 +0.225006 0
+0.435513 +0.201558 0
+0.429937 +0.198978 0
+0.365182 +0.169009 0
+0.370810 +0.171613 0
+0.299009 +0.138384 0
+0.291759 +0.135028 0
+0.217320 +0.100577 0
+0.341799 +0.158187 0
+0.268179 +0.124115 0
+0.227333 +0.105212 0
+0.151430 +0.070083 0
+0.192503 +0.089092 0
+0.121604 +0.056280 0
+0.079624 +0.036851 0
+0.017695 +0.008190 0
+0.094986 +0.043961 0
+0.023042 +0.010665 0
-0.045021 -0.020835 0
-0.107236 -0.049629 0
-0.039129 -0.018108 0
-0.087692 -0.040584 0
-0.155364 -0.071903 0
-0.187741 -0.086887 0
-0.181442 -0.083972 0
-0.229496 -0.106211 0
-0.303723 -0.140564 0
-0.335229 -0.155146 0
-0.261079 -0.120828 0
-0.276325 -0.127885 0
-0.349392 -0.161700 0
-0.348111 -0.161107 0
-0.402722 -0.186382 0
-0.416885 -0.192936 0
-0.471854 -0.218376 0
-0.469724 -0.217391 0
-0.414520 -0.191842 0
-0.398803 -0.184568 0
-0.453304 -0.209792 0
-0.426721 -0.197489 0
-0.507729 -0.234980 0
-0.491929 -0.227668 0
-0.509757 -0.235919 0
-0.483684 -0.223852 0
-0.464889 -0.215154 0
-0.431095 -0.199514 0
-0.450220 -0.208365 0
-0.413293 -0.191275 0
-0.480873 -0.222551 0
-0.448701 -0.207662 0
-0.426313 -0.197301 0
-0.412676 -0.190989 0
+0.378924 +0.175367 0
+0.426103 +0.197203 0
+0.341902 +0.158234 0
+0.405314 +0.187581 0
+0.421146 +0.194908 0
+0.473089 +0.218948 0
+0.455062 +0.210605 0
+0.486486 +0.225148 0
+0.506919 +0.234605 0
+0.518998 +0.240195 0
+0.476917 +0.220720 0
+0.512808 +0.237331 0
+0.501839 +0.232254 0
+0.518077 +0.239769 0
+0.527159 +0.243972 0
+0.518080 +0.239770 0
+0.510827 +0.236414 0
+0.480433 +0.222348 0
+0.490545 +0.227027 0
+0.485002 +0.224462 0
+0.440963 +0.204081 0
+0.413576 +0.191406 0
+0.456168 +0.211118 0
+0.406894 +0.188314 0
+0.365359 +0.169091 0
+0.301155 +0.139377 0
+0.354779 +0.164194 0
+0.307766 +0.142437 0
+0.237852 +0.110080 0
+0.175717 +0.081324 0
+0.244402 +0.113111 0
+0.171188 +0.079228 0
+0.102936 +0.047641 0
+0.027002 +0.012498 0
+0.100607 +0.046563 0
+0.028488 +0.013186 0
-0.045029 -0.020839 0
-0.121063 -0.056028 0
-0.047286 -0.021883 0
-0.119395 -0.055256 0
-0.193265 -0.089443 0
-0.255719 -0.118348 0
-0.186915 -0.086505 0
-0.259843 -0.120256 0
-0.312181 -0.144478 0
-0.376024 -0.174025 0
-0.322810 -0.149397 0
-0.371448 -0.171907 0
-0.425471 -0.196910 0
-0.457740 -0.211844 0
-0.409993 -0.189746 0
-0.460515 -0.213129 0
-0.473227 -0.219012 0
-0.507822 -0.235023 0
-0.493960 -0.228607 0
-0.509428 -0.235766 0
-0.524899 -0.242926 0
-0.524686 -0.242828 0
-0.498333 -0.230631 0
-0.517076 -0.239306 0
-0.486960 -0.225368 0
-0.490551 -0.227030 0
-0.518834 -0.240119 0
-0.505568 -0.233980 0
-0.479515 -0.221923 0
-0.456750 -0.211387 0
-0.442911 -0.204982 0
-0.433801 -0.200766 0
-0.372627 -0.172454 0
-0.413373 -0.191312 0
+0.281207 +0.130144 0
+0.355036 +0.164312 0
+0.200157 +0.092634 0
+0.277754 +0.128546 0
+0.257780 +0.119302 0
+0.334810 +0.154952 0
+0.354544 +0.164085 0
+0.422127 +0.195363 0
+0.407066 +0.188392 0
+0.463020 +0.214288 0
+0.298877 +0.138322 0
+0.371164 +0.171777 0
+0.318420 +0.147367 0
+0.379020 +0.175413 0
+0.431808 +0.199843 0
+0.471666 +0.218290 0
+0.424407 +0.196418 0
+0.444208 +0.205582 0
+0.313657 +0.145163 0
+0.358914 +0.166108 0
+0.283479 +0.131196 0
+0.307469 +0.142299 0
+0.382909 +0.177213 0
+0.380449 +0.176075 0
+0.308666 +0.142853 0
+0.283769 +0.131331 0
+0.228101 +0.105567 0
+0.229436 +0.106185 0
+0.153093 +0.070853 0
+0.131238 +0.060739 0
+0.207277 +0.095930 0
+0.162061 +0.075004 0
+0.088038 +0.040745 0
+0.026838 +0.012422 0
+0.065055 +0.030108 0
+0.022099 +0.010228 0
-0.027958 -0.012939 0
-0.088462 -0.040940 0
-0.038616 -0.017871 0
-0.110621 -0.051195 0
-0.161690 -0.074830 0
-0.238412 -0.110338 0
-0.117789 -0.054513 0
-0.191133 -0.088457 0
-0.197465 -0.091387 0
-0.276732 -0.128073 0
-0.270291 -0.125092 0
-0.344488 -0.159430 0
-0.354483 -0.164056 0
-0.420695 -0.194700 0
-0.260547 -0.120582 0
-0.338196 -0.156519 0
-0.300526 -0.139085 0
-0.369612 -0.171059 0
-0.407742 -0.188705 0
-0.461020 -0.213363 0
-0.427746 -0.197963 0
-0.465748 -0.215551 0
-0.314758 -0.145672 0
-0.372500 -0.172395 0
-0.304087 -0.140733 0
-0.346072 -0.160164 0
-0.414862 -0.192001 0
-0.436849 -0.202176 0
-0.372352 -0.172327 0
-0.379456 -0.175615 0
-0.270485 -0.125182 0
-0.296552 -0.137246 0
-0.217859 -0.100827 0
-0.306247 -0.141733 0
+0.104904 +0.048550 0
+0.177749 +0.082263 0
+0.061078 +0.028267 0
+0.074838 +0.034636 0
+0.138282 +0.063998 0
+0.216518 +0.100206 0
+0.161084 +0.074550 0
+0.241289 +0.111670 0
+0.083333 +0.038567 0
+0.085099 +0.039384 0
+0.171743 +0.079484 0
+0.246522 +0.114092 0
+0.168500 +0.077983 0
+0.233294 +0.107970 0
+0.079937 +0.036995 0
+0.068332 +0.031625 0
+0.151579 +0.070152 0
+0.199741 +0.092442 0
+0.122371 +0.056634 0
+0.149033 +0.068974 0
+0.051220 +0.023705 0
+0.029309 +0.013565 0
+0.082381 +0.038127 0
+0.085337 +0.039495 0
+0.035036 +0.016215 0
+0.014522 +0.006721 0
+0.005048 +0.002336 0
-0.019454 -0.009003 0
-0.014826 -0.006861 0
-0.056839 -0.026305 0
-0.063370 -0.029328 0
-0.123136 -0.056988 0
-0.042317 -0.019584 0
-0.061276 -0.028359 0
-0.106203 -0.049151 0
-0.178690 -0.082699 0
-0.139624 -0.064619 0
-0.219334 -0.101509 0
-0.075134 -0.034772 0
-0.083002 -0.038414 0
-0.161602 -0.074790 0
-0.240254 -0.111191 0
-0.169394 -0.078396 0
-0.241276 -0.111664 0
-0.082929 -0.038380 0
-0.076823 -0.035554 0
-0.162900 -0.075391 0
-0.223244 -0.103319 0
-0.144281 -0.066774 0
-0.189343 -0.087629 0
-0.064796 -0.029988 0
-0.113842 -0.052687 0
-0.206927 -0.095768 0
+0.042294 +0.019573 0
+0.284288 +0.131570 0
+0.440007 +0.203638 0
+0.455023 +0.210587 0
+0.324895 +0.150364 0
+0.096211 +0.044528 0
-0.153981 -0.071262 0
-0.173902 -0.080484 0
+0.070807 +0.032769 0
+0.323506 +0.149720 0
+0.490244 +0.226888 0
+0.506460 +0.234393 0
+0.365014 +0.168931 0
+0.124329 +0.057541 0
-0.124178 -0.057469 0
-0.098167 -0.045433 0
+0.057494 +0.026608 0
+0.219079 +0.101391 0
+0.327896 +0.151752 0
+0.337794 +0.156333 0
+0.245299 +0.113526 0
+0.091314 +0.042261 0
-0.067503 -0.031240 0
-0.310838 -0.143858 0
-0.204360 -0.094580 0
-0.304000 -0.140694 0
-0.086342 -0.039960 0
+0.020142 +0.009321 0
-0.093929 -0.043472 0
+0.169519 +0.078453 0
+0.227265 +0.105179 0
+0.129794 +0.060069 0
+0.377673 +0.174789 0
+0.356751 +0.165106 0
+0.304765 +0.141047 0
+0.466559 +0.215926 0
+0.369223 +0.170879 0
+0.378445 +0.175146 0
+0.405961 +0.187881 0
+0.261782 +0.121155 0
+0.329044 +0.152284 0
+0.218188 +0.100979 0
+0.067625 +0.031298 0
+0.172193 +0.079693 0
-0.031311 -0.014490 0
-0.155598 -0.072011 0
-0.044333 -0.020517 0
-0.263187 -0.121804 0
-0.258708 -0.119731 0
-0.267321 -0.123719 0
-0.196691 -0.091031 0
-0.298800 -0.138287 0
-0.058228 -0.026949 0
+0.060624 +0.028056 0
-0.073928 -0.034215 0
+0.202153 +0.093557 0
+0.319912 +0.148056 0
+0.195789 +0.090611 0
+0.423256 +0.195885 0
+0.489925 +0.226740 0
+0.421149 +0.194909 0
+0.519117 +0.240250 0
+0.505930 +0.234147 0
+0.519018 +0.240205 0
+0.453412 +0.209842 0
+0.362740 +0.167879 0
+0.451861 +0.209125 0
+0.251793 +0.116532 0
+0.116668 +0.053995 0
+0.247371 +0.114485 0
-0.004715 -0.002181 0
-0.143349 -0.066342 0
-0.017267 -0.007990 0
-0.224428 -0.103866 0
-0.251864 -0.116563 0
-0.154595 -0.071548 0
-0.140566 -0.065055 0
-0.218552 -0.101148 0
-0.025234 -0.011679 0
+0.070256 +0.032514 0
-0.041557 -0.019234 0
+0.142582 +0.065987 0
+0.290621 +0.134501 0
+0.184824 +0.085537 0
+0.285358 +0.132065 0
+0.436503 +0.202016 0
+0.378055 +0.174966 0
+0.347639 +0.160889 0
+0.450172 +0.208342 0
+0.462126 +0.213875 0
+0.304362 +0.140861 0
+0.326401 +0.151061 0
+0.403969 +0.186960 0
+0.174134 +0.080591 0
+0.116285 +0.053818 0
+0.227552 +0.105313 0
+0.008349 +0.003865 0
-0.098546 -0.045607 0
+0.004231 +0.001959 0
-0.129118 -0.059756 0
-0.182877 -0.084636 0
-0.050681 -0.023456 0
-0.080803 -0.037396 0
+0.033616 +0.015557 0
-0.011157 -0.005164 0
+0.120501 +0.055768 0
+0.078901 +0.036515 0
+0.178052 +0.082403 0
+0.155061 +0.071763 0
+0.183328 +0.084845 0
+0.186870 +0.086485 0
+0.134560 +0.062275 0
+0.165170 +0.076442 0
+0.051715 +0.023934 0
+0.095702 +0.044292 0
-0.034100 -0.015781 0
+0.006870 +0.003180 0
-0.067043 -0.031028 0
-0.347837 -0.160982 0
-0.294140 -0.136131 0
-0.354447 -0.164041 0
-0.309696 -0.143330 0
-0.261462 -0.121007 0
-0.207198 -0.095893 0
-0.255931 -0.118447 0
-0.198593 -0.091911 0
-0.150059 -0.069449 0
-0.095433 -0.044168 0
-0.148236 -0.068605 0
-0.090858 -0.042051 0
-0.022505 -0.010416 0
+0.031429 +0.014545 0
-0.036865 -0.017062 0
+0.008929 +0.004131 0
+0.075983 +0.035164 0
+0.107648 +0.049820 0
+0.106697 +0.049379 0
+0.150815 +0.069797 0
+0.228951 +0.105959 0
+0.257755 +0.119290 0
+0.180483 +0.083528 0
+0.194229 +0.089890 0
+0.268791 +0.124397 0
+0.262527 +0.121499 0
+0.334140 +0.154641 0
+0.343934 +0.159174 0
+0.412868 +0.191077 0
+0.401518 +0.185825 0
+0.334143 +0.154643 0
+0.308028 +0.142557 0
+0.371336 +0.171856 0
+0.327179 +0.151420 0
+0.457797 +0.211871 0
+0.425851 +0.197086 0
+0.465378 +0.215380 0
+0.415398 +0.192249 0
+0.377623 +0.174766 0
+0.319207 +0.147731 0
+0.352672 +0.163219 0
+0.284278 +0.131566 0
+0.434721 +0.201192 0
+0.370413 +0.171430 0
+0.368922 +0.170740 0
+0.295680 +0.136843 0
+0.298437 +0.138119 0
+0.225232 +0.104239 0
+0.219250 +0.101471 0
+0.145955 +0.067549 0
+0.273990 +0.126805 0
+0.196729 +0.091048 0
+0.158430 +0.073323 0
+0.082565 +0.038212 0
+0.121279 +0.056129 0
+0.052207 +0.024162 0
+0.012034 +0.005570 0
-0.049720 -0.023010 0
+0.032430 +0.015010 0