# vtk DataFile Version 2.0
MyTitle
ASCII
DATASET UNSTRUCTURED_GRID
POINTS 2773 double
0.800000 -0.800000 0.000000
0.800000 0.800000 0.000000
-0.800000 0.800000 0.000000
-0.800000 -0.800000 0.000000
1.414214 -1.414214 0.000000
1.414214 1.414214 0.000000
-1.414214 1.414214 0.000000
-1.414214 -1.414214 0.000000
0.800000 -0.711111 0.000000
0.800000 -0.622222 0.000000
0.800000 -0.533333 0.000000
0.800000 -0.444444 0.000000
0.800000 -0.355556 0.000000
0.800000 -0.266667 0.000000
0.800000 -0.177778 0.000000
0.800000 -0.088889 0.000000
0.800000 -0.000000 0.000000
0.800000 0.088889 0.000000
0.800000 0.177778 0.000000
0.800000 0.266667 0.000000
0.800000 0.355556 0.000000
0.800000 0.444444 0.000000
0.800000 0.533333 0.000000
0.800000 0.622222 0.000000
0.800000 0.711111 0.000000
0.800000 -0.755556 0.000000
0.800000 -0.666667 0.000000
0.800000 -0.577778 0.000000
0.800000 -0.488889 0.000000
0.800000 -0.400000 0.000000
0.800000 -0.311111 0.000000
0.800000 -0.222222 0.000000
0.800000 -0.133333 0.000000
0.800000 -0.044444 0.000000
0.800000 0.044444 0.000000
0.800000 0.133333 0.000000
0.800000 0.222222 0.000000
0.800000 0.311111 0.000000
0.800000 0.400000 0.000000
0.800000 0.488889 0.000000
0.800000 0.577778 0.000000
0.800000 0.666667 0.000000
0.800000 0.755556 0.000000
0.711111 0.800000 0.000000
0.622222 0.800000 0.000000
0.533333 0.800000 0.000000
0.444444 0.800000 0.000000
0.355556 0.800000 0.000000
0.266667 0.800000 0.000000
0.177778 0.800000 0.000000
0.088889 0.800000 0.000000
0.000000 0.800000 0.000000
-0.088889 0.800000 0.000000
-0.177778 0.800000 0.000000
-0.266667 0.800000 0.000000
-0.355556 0.800000 0.000000
-0.444444 0.800000 0.000000
-0.533333 0.800000 0.000000
-0.622222 0.800000 0.000000
-0.711111 0.800000 0.000000
0.755556 0.800000 0.000000
0.666667 0.800000 0.000000
0.577778 0.800000 0.000000
0.488889 0.800000 0.000000
0.400000 0.800000 0.000000
0.311111 0.800000 0.000000
0.222222 0.800000 0.000000
0.133333 0.800000 0.000000
0.044444 0.800000 0.000000
-0.044444 0.800000 0.000000
-0.133333 0.800000 0.000000
-0.222222 0.800000 0.000000
-0.311111 0.800000 0.000000
-0.400000 0.800000 0.000000
-0.488889 0.800000 0.000000
-0.577778 0.800000 0.000000
-0.666667 0.800000 0.000000
-0.755556 0.800000 0.000000
-0.800000 0.711111 0.000000
-0.800000 0.622222 0.000000
-0.800000 0.533333 0.000000
-0.800000 0.444444 0.000000
-0.800000 0.355556 0.000000
-0.800000 0.266667 0.000000
-0.800000 0.177778 0.000000
-0.800000 0.088889 0.000000
-0.800000 0.000000 0.000000
-0.800000 -0.088889 0.000000
-0.800000 -0.177778 0.000000
-0.800000 -0.266667 0.000000
-0.800000 -0.355556 0.000000
-0.800000 -0.444444 0.000000
-0.800000 -0.533333 0.000000
-0.800000 -0.622222 0.000000
-0.800000 -0.711111 0.000000
-0.800000 0.755556 0.000000
-0.800000 0.666667 0.000000
-0.800000 0.577778 0.000000
-0.800000 0.488889 0.000000
-0.800000 0.400000 0.000000
-0.800000 0.311111 0.000000
-0.800000 0.222222 0.000000
-0.800000 0.133333 0.000000
-0.800000 0.044444 0.000000
-0.800000 -0.044444 0.000000
-0.800000 -0.133333 0.000000
-0.800000 -0.222222 0.000000
-0.800000 -0.311111 0.000000
-0.800000 -0.400000 0.000000
-0.800000 -0.488889 0.000000
-0.800000 -0.577778 0.000000
-0.800000 -0.666667 0.000000
-0.800000 -0.755556 0.000000
-0.711111 -0.800000 0.000000
-0.622222 -0.800000 0.000000
-0.533333 -0.800000 0.000000
-0.444444 -0.800000 0.000000
-0.355556 -0.800000 0.000000
-0.266667 -0.800000 0.000000
-0.177778 -0.800000 0.000000
-0.088889 -0.800000 0.000000
-0.000000 -0.800000 0.000000
0.088889 -0.800000 0.000000
0.177778 -0.800000 0.000000
0.266667 -0.800000 0.000000
0.355556 -0.800000 0.000000
0.444444 -0.800000 0.000000
0.533333 -0.800000 0.000000
0.622222 -0.800000 0.000000
0.711111 -0.800000 0.000000
-0.755556 -0.800000 0.000000
-0.666667 -0.800000 0.000000
-0.577778 -0.800000 0.000000
-0.488889 -0.800000 0.000000
-0.400000 -0.800000 0.000000
-0.311111 -0.800000 0.000000
-0.222222 -0.800000 0.000000
-0.133333 -0.800000 0.000000
-0.044444 -0.800000 0.000000
0.044444 -0.800000 0.000000
0.133333 -0.800000 0.000000
0.222222 -0.800000 0.000000
0.311111 -0.800000 0.000000
0.400000 -0.800000 0.000000
0.488889 -0.800000 0.000000
0.577778 -0.800000 0.000000
0.666667 -0.800000 0.000000
0.755556 -0.800000 0.000000
1.532089 -1.285575 0.000000
1.638304 -1.147153 0.000000
1.732051 -1.000000 0.000000
1.812616 -0.845237 0.000000
1.879385 -0.684040 0.000000
1.931852 -0.517638 0.000000
1.969616 -0.347296 0.000000
1.992389 -0.174311 0.000000
2.000000 -0.000000 0.000000
1.992389 0.174311 0.000000
1.969616 0.347296 0.000000
1.931852 0.517638 0.000000
1.879385 0.684040 0.000000
1.812616 0.845237 0.000000
1.732051 1.000000 0.000000
1.638304 1.147153 0.000000
1.532089 1.285575 0.000000
1.474555 -1.351180 0.000000
1.586707 -1.217523 0.000000
1.686783 -1.074599 0.000000
1.774022 -0.923497 0.000000
1.847759 -0.765367 0.000000
1.907434 -0.601412 0.000000
1.952592 -0.432879 0.000000
1.982890 -0.261052 0.000000
1.998096 -0.087239 0.000000
1.998096 0.087239 0.000000
1.982890 0.261052 0.000000
1.952592 0.432879 0.000000
1.907434 0.601412 0.000000
1.847759 0.765367 0.000000
1.774022 0.923497 0.000000
1.686783 1.074599 0.000000
1.586707 1.217523 0.000000
1.474555 1.351180 0.000000
1.285575 1.532089 0.000000
1.147153 1.638304 0.000000
1.000000 1.732051 0.000000
0.845237 1.812616 0.000000
0.684040 1.879385 0.000000
0.517638 1.931852 0.000000
0.347296 1.969616 0.000000
0.174311 1.992389 0.000000
0.000000 2.000000 0.000000
-0.174311 1.992389 0.000000
-0.347296 1.969616 0.000000
-0.517638 1.931852 0.000000
-0.684040 1.879385 0.000000
-0.845237 1.812616 0.000000
-1.000000 1.732051 0.000000
-1.147153 1.638304 0.000000
-1.285575 1.532089 0.000000
1.351180 1.474555 0.000000
1.217523 1.586707 0.000000
1.074599 1.686783 0.000000
0.923497 1.774022 0.000000
0.765367 1.847759 0.000000
0.601412 1.907434 0.000000
0.432879 1.952592 0.000000
0.261052 1.982890 0.000000
0.087239 1.998096 0.000000
-0.087239 1.998096 0.000000
-0.261052 1.982890 0.000000
-0.432879 1.952592 0.000000
-0.601412 1.907434 0.000000
-0.765367 1.847759 0.000000
-0.923497 1.774022 0.000000
-1.074599 1.686783 0.000000
-1.217523 1.586707 0.000000
-1.351180 1.474555 0.000000
-1.532089 1.285575 0.000000
-1.638304 1.147153 0.000000
-1.732051 1.000000 0.000000
-1.812616 0.845237 0.000000
-1.879385 0.684040 0.000000
-1.931852 0.517638 0.000000
-1.969616 0.347296 0.000000
-1.992389 0.174311 0.000000
-2.000000 0.000000 0.000000
-1.992389 -0.174311 0.000000
-1.969616 -0.347296 0.000000
-1.931852 -0.517638 0.000000
-1.879385 -0.684040 0.000000
-1.812616 -0.845237 0.000000
-1.732051 -1.000000 0.000000
-1.638304 -1.147153 0.000000
-1.532089 -1.285575 0.000000
-1.474555 1.351180 0.000000
-1.586707 1.217523 0.000000
-1.686783 1.074599 0.000000
-1.774022 0.923497 0.000000
-1.847759 0.765367 0.000000
-1.907434 0.601412 0.000000
-1.952592 0.432879 0.000000
-1.982890 0.261052 0.000000
-1.998096 0.087239 0.000000
-1.998096 -0.087239 0.000000
-1.982890 -0.261052 0.000000
-1.952592 -0.432879 0.000000
-1.907434 -0.601412 0.000000
-1.847759 -0.765367 0.000000
-1.774022 -0.923497 0.000000
-1.686783 -1.074599 0.000000
-1.586707 -1.217523 0.000000
-1.474555 -1.351180 0.000000
-1.285575 -1.532089 0.000000
-1.147153 -1.638304 0.000000
-1.000000 -1.732051 0.000000
-0.845237 -1.812616 0.000000
-0.684040 -1.879385 0.000000
-0.517638 -1.931852 0.000000
-0.347296 -1.969616 0.000000
-0.174311 -1.992389 0.000000
-0.000000 -2.000000 0.000000
0.174311 -1.992389 0.000000
0.347296 -1.969616 0.000000
0.517638 -1.931852 0.000000
0.684040 -1.879385 0.000000
0.845237 -1.812616 0.000000
1.000000 -1.732051 0.000000
1.147153 -1.638304 0.000000
1.285575 -1.532089 0.000000
-1.351180 -1.474555 0.000000
-1.217523 -1.586707 0.000000
-1.074599 -1.686783 0.000000
-0.923497 -1.774022 0.000000
-0.765367 -1.847759 0.000000
-0.601412 -1.907434 0.000000
-0.432879 -1.952592 0.000000
-0.261052 -1.982890 0.000000
-0.087239 -1.998096 0.000000
0.087239 -1.998096 0.000000
0.261052 -1.982890 0.000000
0.432879 -1.952592 0.000000
0.601412 -1.907434 0.000000
0.765367 -1.847759 0.000000
0.923497 -1.774022 0.000000
1.074599 -1.686783 0.000000
1.217523 -1.586707 0.000000
1.351180 -1.474555 0.000000
0.876777 -0.876777 0.000000
0.953553 -0.953553 0.000000
1.030330 -1.030330 0.000000
1.107107 -1.107107 0.000000
1.183883 -1.183883 0.000000
1.260660 -1.260660 0.000000
1.337437 -1.337437 0.000000
0.838388 -0.838388 0.000000
0.915165 -0.915165 0.000000
0.991942 -0.991942 0.000000
1.068718 -1.068718 0.000000
1.145495 -1.145495 0.000000
1.222272 -1.222272 0.000000
1.299049 -1.299049 0.000000
1.375825 -1.375825 0.000000
0.876777 0.876777 0.000000
0.953553 0.953553 0.000000
1.030330 1.030330 0.000000
1.107107 1.107107 0.000000
1.183883 1.183883 0.000000
1.260660 1.260660 0.000000
1.337437 1.337437 0.000000
0.838388 0.838388 0.000000
0.915165 0.915165 0.000000
0.991942 0.991942 0.000000
1.068718 1.068718 0.000000
1.145495 1.145495 0.000000
1.222272 1.222272 0.000000
1.299049 1.299049 0.000000
1.375825 1.375825 0.000000
-0.876777 0.876777 0.000000
-0.953553 0.953553 0.000000
-1.030330 1.030330 0.000000
-1.107107 1.107107 0.000000
-1.183883 1.183883 0.000000
-1.260660 1.260660 0.000000
-1.337437 1.337437 0.000000
-0.838388 0.838388 0.000000
-0.915165 0.915165 0.000000
-0.991942 0.991942 0.000000
-1.068718 1.068718 0.000000
-1.145495 1.145495 0.000000
-1.222272 1.222272 0.000000
-1.299049 1.299049 0.000000
-1.375825 1.375825 0.000000
-0.876777 -0.876777 0.000000
-0.953553 -0.953553 0.000000
-1.030330 -1.030330 0.000000
-1.107107 -1.107107 0.000000
-1.183883 -1.183883 0.000000
-1.260660 -1.260660 0.000000
-1.337437 -1.337437 0.000000
-0.838388 -0.838388 0.000000
-0.915165 -0.915165 0.000000
-0.991942 -0.991942 0.000000
-1.068718 -1.068718 0.000000
-1.145495 -1.145495 0.000000
-1.222272 -1.222272 0.000000
-1.299049 -1.299049 0.000000
-1.375825 -1.375825 0.000000
1.004570 -0.750138 0.000000
1.046902 -0.541729 0.000000
1.076366 -0.327598 0.000000
1.091686 -0.109645 0.000000
1.091564 0.109637 0.000000
1.076182 0.327573 0.000000
[...]
POINT_DATA 2773
VECTORS sol double
-0.318927 -0.020859 0
-0.318927 -0.020859 0
-0.318927 -0.020859 0
-0.318927 -0.020859 0
+0.000000 +0.000000 0
+0.000000 +0.000000 0
+0.000000 +0.000000 0
+0.000000 +0.000000 0
-0.339889 -0.022230 0
-0.358846 -0.023470 0
-0.375629 -0.024568 0
-0.390091 -0.025514 0
-0.402103 -0.026300 0
-0.411559 -0.026918 0
-0.418374 -0.027364 0
-0.422487 -0.027633 0
-0.423862 -0.027723 0
-0.422487 -0.027633 0
-0.418374 -0.027364 0
-0.411559 -0.026918 0
-0.402103 -0.026300 0
-0.390091 -0.025514 0
-0.375629 -0.024568 0
-0.358846 -0.023470 0
-0.339889 -0.022230 0
-0.329646 -0.021561 0
-0.349628 -0.022867 0
-0.367518 -0.024038 0
-0.383158 -0.025060 0
-0.396410 -0.025927 0
-0.407156 -0.026630 0
-0.415301 -0.027163 0
-0.420771 -0.027521 0
-0.423518 -0.027700 0
-0.423518 -0.027700 0
-0.420771 -0.027521 0
-0.415301 -0.027163 0
-0.407156 -0.026630 0
-0.396410 -0.025927 0
-0.383158 -0.025060 0
-0.367518 -0.024038 0
-0.349628 -0.022867 0
-0.329646 -0.021561 0
-0.339889 -0.022230 0
-0.358846 -0.023470 0
-0.375629 -0.024568 0
-0.390091 -0.025514 0
-0.402103 -0.026300 0
-0.411559 -0.026918 0
-0.418374 -0.027364 0
-0.422487 -0.027633 0
-0.423862 -0.027723 0
-0.422487 -0.027633 0
-0.418374 -0.027364 0
-0.411559 -0.026918 0
-0.402103 -0.026300 0
-0.390091 -0.025514 0
-0.375629 -0.024568 0
-0.358846 -0.023470 0
-0.339889 -0.022230 0
-0.329646 -0.021561 0
-0.349628 -0.022867 0
-0.367518 -0.024038 0
-0.383158 -0.025060 0
-0.396410 -0.025927 0
-0.407156 -0.026630 0
-0.415301 -0.027163 0
-0.420771 -0.027521 0
-0.423518 -0.027700 0
-0.423518 -0.027700 0
-0.420771 -0.027521 0
-0.415301 -0.027163 0
-0.407156 -0.026630 0
-0.396410 -0.025927 0
-0.383158 -0.025060 0
-0.367518 -0.024038 0
-0.349628 -0.022867 0
-0.329646 -0.021561 0
-0.339889 -0.022230 0
-0.358846 -0.023470 0
-0.375629 -0.024568 0
-0.390091 -0.025514 0
-0.402103 -0.026300 0
-0.411559 -0.026918 0
-0.418374 -0.027364 0
-0.422487 -0.027633 0
-0.423862 -0.027723 0
-0.422487 -0.027633 0
-0.418374 -0.027364 0
-0.411559 -0.026918 0
-0.402103 -0.026300 0
-0.390091 -0.025514 0
-0.375629 -0.024568 0
-0.358846 -0.023470 0
-0.339889 -0.022230 0
-0.329646 -0.021561 0
-0.349628 -0.022867 0
-0.367518 -0.024038 0
-0.383158 -0.025060 0
-0.396410 -0.025927 0
-0.407156 -0.026630 0
-0.415301 -0.027163 0
-0.420771 -0.027521 0
-0.423518 -0.027700 0
-0.423518 -0.027700 0
-0.420771 -0.027521 0
-0.415301 -0.027163 0
-0.407156 -0.026630 0
-0.396410 -0.025927 0
-0.383158 -0.025060 0
-0.367518 -0.024038 0
-0.349628 -0.022867 0
-0.329646 -0.021561 0
-0.339889 -0.022230 0
-0.358846 -0.023470 0
-0.375629 -0.024568 0
-0.390091 -0.025514 0
-0.402103 -0.026300 0
-0.411559 -0.026918 0
-0.418374 -0.027364 0
-0.422487 -0.027633 0
-0.423862 -0.027723 0
-0.422487 -0.027633 0
-0.418374 -0.027364 0
-0.411559 -0.026918 0
-0.402103 -0.026300 0
-0.390091 -0.025514 0
-0.375629 -0.024568 0
-0.358846 -0.023470 0
-0.339889 -0.022230 0
-0.329646 -0.021561 0
-0.349628 -0.022867 0
-0.367518 -0.024038 0
-0.383158 -0.025060 0
-0.396410 -0.025927 0
-0.407156 -0.026630 0
-0.415301 -0.027163 0
-0.420771 -0.027521 0
-0.423518 -0.027700 0
-0.423518 -0.027700 0
-0.420771 -0.027521 0
-0.415301 -0.027163 0
-0.407156 -0.026630 0
-0.396410 -0.025927 0
-0.383158 -0.025060 0
-0.367518 -0.024038 0
-0.349628 -0.022867 0
-0.329646 -0.021561 0
+0.000000 +0.000000 0
+0.000000 +0.000000 0
+0.000000 +0.000000 0
+0.000000 +0.000000 0
+0.000000 +0.000000 0
+0.000000 +0.000000 0
+0.000000 +0.000000 0
+0.000000 +0.000000 0
+0.000000 +0.000000 0
+0.000000 +0.000000 0
+0.000000 +0.000000 0
+0.000000 +0.000000 0
+0.000000 +0.000000 0
+0.000000 +0.000000 0
+0.000000 +0.000000 0
+0.000000 +0.000000 0
+0.000000 +0.000000 0
+0.000000 +0.000000 0
+0.000000 +0.000000 0
+0.000000 +0.000000 0
+0.000000 +0.000000 0
+0.000000 +0.000000 0
+0.000000 +0.000000 0
+0.000000 +0.000000 0
+0.000000 +0.000000 0
+0.000000 +0.000000 0
+0.000000 +0.000000 0
+0.000000 +0.000000 0
+0.000000 +0.000000 0
+0.000000 +0.000000 0
+0.000000 +0.000000 0
+0.000000 +0.000000 0
+0.000000 +0.000000 0
+0.000000 +0.000000 0
+0.000000 +0.000000 0
+0.000000 +0.000000 0
+0.000000 +0.000000 0
+0.000000 +0.000000 0
+0.000000 +0.000000 0
+0.000000 +0.000000 0
+0.000000 +0.000000 0
+0.000000 +0.000000 0
+0.000000 +0.000000 0
+0.000000 +0.000000 0
+0.000000 +0.000000 0
+0.000000 +0.000000 0
+0.000000 +0.000000 0
+0.000000 +0.000000 0
+0.000000 +0.000000 0
+0.000000 +0.000000 0
+0.000000 +0.000000 0
+0.000000 +0.000000 0
+0.000000 +0.000000 0
+0.000000 +0.000000 0
+0.000000 +0.000000 0
+0.000000 +0.000000 0
+0.000000 +0.000000 0
+0.000000 +0.000000 0
+0.000000 +0.000000 0
+0.000000 +0.000000 0
+0.000000 +0.000000 0
+0.000000 +0.000000 0
+0.000000 +0.000000 0
+0.000000 +0.000000 0
+0.000000 +0.000000 0
+0.000000 +0.000000 0
+0.000000 +0.000000 0
+0.000000 +0.000000 0
+0.000000 +0.000000 0
+0.000000 +0.000000 0
+0.000000 +0.000000 0
+0.000000 +0.000000 0
+0.000000 +0.000000 0
+0.000000 +0.000000 0
+0.000000 +0.000000 0
+0.000000 +0.000000 0
+0.000000 +0.000000 0
+0.000000 +0.000000 0
+0.000000 +0.000000 0
+0.000000 +0.000000 0
+0.000000 +0.000000 0
+0.000000 +0.000000 0
+0.000000 +0.000000 0
+0.000000 +0.000000 0
+0.000000 +0.000000 0
+0.000000 +0.000000 0
+0.000000 +0.000000 0
+0.000000 +0.000000 0
+0.000000 +0.000000 0
+0.000000 +0.000000 0
+0.000000 +0.000000 0
+0.000000 +0.000000 0
+0.000000 +0.000000 0
+0.000000 +0.000000 0
+0.000000 +0.000000 0
+0.000000 +0.000000 0
+0.000000 +0.000000 0
+0.000000 +0.000000 0
+0.000000 +0.000000 0
+0.000000 +0.000000 0
+0.000000 +0.000000 0
+0.000000 +0.000000 0
+0.000000 +0.000000 0
+0.000000 +0.000000 0
+0.000000 +0.000000 0
+0.000000 +0.000000 0
+0.000000 +0.000000 0
+0.000000 +0.000000 0
+0.000000 +0.000000 0
+0.000000 +0.000000 0
+0.000000 +0.000000 0
+0.000000 +0.000000 0
+0.000000 +0.000000 0
+0.000000 +0.000000 0
+0.000000 +0.000000 0
+0.000000 +0.000000 0
+0.000000 +0.000000 0
+0.000000 +0.000000 0
+0.000000 +0.000000 0
+0.000000 +0.000000 0
+0.000000 +0.000000 0
+0.000000 +0.000000 0
+0.000000 +0.000000 0
+0.000000 +0.000000 0
+0.000000 +0.000000 0
+0.000000 +0.000000 0
+0.000000 +0.000000 0
+0.000000 +0.000000 0
+0.000000 +0.000000 0
+0.000000 +0.000000 0
+0.000000 +0.000000 0
+0.000000 +0.000000 0
+0.000000 +0.000000 0
+0.000000 +0.000000 0
+0.000000 +0.000000 0
+0.000000 +0.000000 0
+0.000000 +0.000000 0
+0.000000 +0.000000 0
+0.000000 +0.000000 0
+0.000000 +0.000000 0
-0.280264 -0.018331 0
-0.240277 -0.015715 0
-0.199454 -0.013045 0
-0.158292 -0.010353 0
-0.117287 -0.007671 0
-0.076923 -0.005031 0
-0.037679 -0.002464 0
-0.299793 -0.019608 0
-0.260407 -0.017032 0
-0.219940 -0.014385 0
-0.178885 -0.011700 0
-0.137740 -0.009009 0
-0.096996 -0.006344 0
-0.057134 -0.003737 0
-0.018613 -0.001217 0
-0.280264 -0.018331 0
-0.240277 -0.015715 0
-0.199454 -0.013045 0
-0.158292 -0.010353 0
-0.117287 -0.007671 0
-0.076923 -0.005031 0
-0.037679 -0.002464 0
-0.299793 -0.019608 0
-0.260407 -0.017032 0
-0.219940 -0.014385 0
-0.178885 -0.011700 0
-0.137740 -0.009009 0
-0.096996 -0.006344 0
-0.057134 -0.003737 0
-0.018613 -0.001217 0
-0.280264 -0.018331 0
-0.240277 -0.015715 0
-0.199454 -0.013045 0
-0.158292 -0.010353 0
-0.117287 -0.007671 0
-0.076923 -0.005031 0
-0.037679 -0.002464 0
-0.299793 -0.019608 0
-0.260407 -0.017032 0
-0.219940 -0.014385 0
-0.178885 -0.011700 0
-0.137740 -0.009009 0
-0.096996 -0.006344 0
-0.057134 -0.003737 0
-0.018613 -0.001217 0
-0.280264 -0.018331 0
-0.240277 -0.015715 0
-0.199454 -0.013045 0
-0.158292 -0.010353 0
-0.117287 -0.007671 0
-0.076924 -0.005031 0
-0.037679 -0.002464 0
-0.299793 -0.019608 0
-0.260407 -0.017032 0
-0.219940 -0.014385 0
-0.178885 -0.011700 0
-0.137740 -0.009009 0
-0.096996 -0.006344 0
-0.057134 -0.003737 0
-0.018613 -0.001217 0
-0.275249 -0.018003 0
-0.302247 -0.019768 0
-0.321104 -0.021002 0
-0.330751 -0.021633 0
-0.330793 -0.021636 0
-0.321168 -0.021006 0
-0.302223 -0.019767 0
-0.275267 -0.018004 0
-0.185253 -0.012116 0
-0.204646 -0.013385 0
-0.218009 -0.014259 0
-0.222314 -0.014540 0
-0.223363 -0.014609 0
-0.217846 -0.014248 0
-0.204549 -0.013379 0
-0.185269 -0.012118 0
-0.093178 -0.006094 0
-0.103039 -0.006739 0
-0.109702 -0.007175 0
-0.111861 -0.007316 0
-0.110701 -0.007240 0
-0.108589 -0.007102 0
-0.103007 -0.006737 0
-0.093301 -0.006102 0
-0.258890 -0.016933 0
-0.318214 -0.020813 0
-0.300307 -0.019642 0
-0.289840 -0.018957 0
-0.347875 -0.022753 0
-0.334199 -0.021858 0
-0.312905 -0.020466 0
-0.368479 -0.024100 0
-0.359465 -0.023511 0
-0.327259 -0.021404 0
-0.379046 -0.024791 0
-0.375143 -0.024536 0
-0.332094 -0.021721 0
-0.379061 -0.024792 0
-0.380458 -0.024884 0
-0.327399 -0.021414 0
-0.368501 -0.024102 0
-0.375177 -0.024538 0
-0.312927 -0.020467 0
-0.347886 -0.022754 0
-0.359232 -0.023496 0
-0.289447 -0.018931 0
-0.318079 -0.020804 0
-0.333999 -0.021845 0
-0.258748 -0.016923 0
-0.300229 -0.019636 0
-0.172820 -0.011303 0
-0.230424 -0.015071 0
-0.216187 -0.014140 0
-0.195319 -0.012775 0
-0.253853 -0.016603 0
-0.243227 -0.015908 0
-0.211719 -0.013847 0
-0.270255 -0.017676 0
-0.263258 -0.017218 0
-0.221615 -0.014495 0
-0.278340 -0.018205 0
-0.275606 -0.018026 0
-0.222429 -0.014548 0
-0.278562 -0.018219 0
-0.279447 -0.018277 0
-0.222161 -0.014530 0
-0.270641 -0.017701 0
-0.276066 -0.018056 0
-0.212559 -0.013902 0
-0.253868 -0.016604 0
-0.263151 -0.017211 0
-0.195383 -0.012779 0
-0.230608 -0.015083 0
-0.243510 -0.015927 0
-0.172877 -0.011307 0
-0.216343 -0.014150 0
-0.086542 -0.005660 0
-0.139487 -0.009123 0
-0.129843 -0.008492 0
-0.099015 -0.006476 0
-0.154347 -0.010095 0
-0.147876 -0.009672 0
-0.107159 -0.007009 0
-0.164396 -0.010752 0
-0.160336 -0.010487 0
-0.111069 -0.007264 0
-0.168271 -0.011006 0
-0.167377 -0.010947 0
-0.111570 -0.007297 0
-0.168346 -0.011011 0
-0.168876 -0.011045 0
-0.109834 -0.007184 0
-0.164295 -0.010746 0
-0.167195 -0.010935 0
-0.106822 -0.006987 0
-0.154243 -0.010088 0
-0.159984 -0.010464 0
-0.098945 -0.006472 0
-0.139574 -0.009129 0
-0.147873 -0.009672 0
-0.086608 -0.005665 0
-0.129891 -0.008496 0
-0.047116 -0.003082 0
-0.043580 -0.002850 0
-0.052007 -0.003401 0
-0.049940 -0.003266 0
-0.054809 -0.003585 0
-0.053554 -0.003503 0
-0.056308 -0.003683 0
-0.055974 -0.003661 0
-0.056093 -0.003669 0
-0.056082 -0.003668 0
-0.054708 -0.003578 0
-0.055712 -0.003644 0
-0.052183 -0.003413 0
-0.053535 -0.003501 0
-0.046953 -0.003071 0
-0.049659 -0.003248 0
-0.043409 -0.002839 0
-0.290559 -0.019004 0
-0.320349 -0.020952 0
-0.249904 -0.016345 0
-0.279781 -0.018299 0
-0.267418 -0.017491 0
-0.296970 -0.019423 0
-0.309560 -0.020247 0
-0.338847 -0.022162 0
-0.326531 -0.021357 0
-0.355300 -0.023238 0
-0.282920 -0.018504 0
-0.312317 -0.020427 0
-0.296443 -0.019389 0
-0.325418 -0.021284 0
-0.341383 -0.022328 0
-0.369439 -0.024163 0
-0.354036 -0.023156 0
-0.381301 -0.024939 0
-0.307998 -0.020145 0
-0.336594 -0.022015 0
-0.317445 -0.020762 0
-0.345248 -0.022581 0
-0.364354 -0.023831 0
-0.390591 -0.025547 0
-0.372206 -0.024344 0
-0.397370 -0.025990 0
-0.324637 -0.021233 0
-0.351692 -0.023002 0
-0.329470 -0.021549 0
-0.355413 -0.023246 0
-0.377498 -0.024690 0
-0.401405 -0.026254 0
-0.380160 -0.024864 0
-0.402806 -0.026346 0
-0.331893 -0.021707 0
-0.356798 -0.023336 0
-0.331914 -0.021709 0
-0.355441 -0.023248 0
-0.380168 -0.024865 0
-0.401413 -0.026254 0
-0.377523 -0.024692 0
-0.397386 -0.025991 0
-0.329561 -0.021555 0
-0.351778 -0.023008 0
-0.324739 -0.021240 0
-0.345290 -0.022584 0
-0.372234 -0.024346 0
-0.390602 -0.025547 0
-0.364249 -0.023824 0
-0.381190 -0.024932 0
-0.317488 -0.020765 0
-0.336485 -0.022008 0
-0.307998 -0.020145 0
-0.325412 -0.021284 0
-0.353925 -0.023148 0
-0.369444 -0.024164 0
-0.341289 -0.022322 0
-0.355203 -0.023232 0
-0.296236 -0.019375 0
-0.312023 -0.020408 0
-0.282732 -0.018492 0
-0.296910 -0.019419 0
-0.326363 -0.021346 0
-0.338781 -0.022158 0
-0.309453 -0.020240 0
-0.320311 -0.020950 0
-0.267356 -0.017486 0
-0.279671 -0.018292 0
-0.249833 -0.016340 0
-0.290520 -0.019001 0
-0.208195 -0.013617 0
-0.237650 -0.015543 0
-0.165990 -0.010857 0
-0.194543 -0.012724 0
-0.179500 -0.011740 0
-0.207908 -0.013598 0
-0.223711 -0.014632 0
-0.252994 -0.016547 0
-0.237257 -0.015518 0
-0.266737 -0.017446 0
-0.190775 -0.012478 0
-0.219377 -0.014348 0
-0.200494 -0.013113 0
-0.229383 -0.015003 0
-0.248996 -0.016286 0
-0.278301 -0.018202 0
-0.259034 -0.016942 0
-0.288374 -0.018861 0
-0.208715 -0.013651 0
-0.237655 -0.015544 0
-0.215414 -0.014089 0
-0.244321 -0.015980 0
-0.267255 -0.017480 0
-0.296010 -0.019361 0
-0.273444 -0.017885 0
-0.301792 -0.019739 0
-0.220376 -0.014414 0
-0.248824 -0.016274 0
-0.222538 -0.014555 0
-0.250561 -0.016388 0
-0.277496 -0.018150 0
-0.304925 -0.019944 0
-0.279421 -0.018276 0
-0.306158 -0.020024 0
-0.222952 -0.014582 0
-0.251182 -0.016429 0
-0.223475 -0.014616 0
-0.251191 -0.016429 0
-0.279533 -0.018283 0
-0.305055 -0.019952 0
-0.277837 -0.018172 0
-0.302088 -0.019758 0
-0.223334 -0.014607 0
-0.249327 -0.016307 0
-0.220567 -0.014426 0
-0.244436 -0.015987 0
-0.273866 -0.017912 0
-0.296231 -0.019375 0
-0.267394 -0.017489 0
-0.288334 -0.018858 0
-0.215751 -0.014111 0
-0.238016 -0.015567 0
-0.209085 -0.013675 0
-0.229342 -0.015000 0
-0.258989 -0.016939 0
-0.278296 -0.018202 0
-0.249145 -0.016295 0
-0.266676 -0.017442 0
-0.200478 -0.013112 0
-0.219552 -0.014360 0
-0.190816 -0.012480 0
-0.208009 -0.013605 0
-0.237491 -0.015533 0
-0.253094 -0.016554 0
-0.223881 -0.014643 0
-0.237655 -0.015544 0
-0.179537 -0.011743 0
-0.194650 -0.012731 0
-0.166018 -0.010858 0
-0.208273 -0.013622 0
-0.124056 -0.008114 0
-0.151299 -0.009896 0
-0.082283 -0.005382 0
-0.108086 -0.007069 0
-0.090436 -0.005915 0
-0.116229 -0.007602 0
-0.135186 -0.008842 0
-0.162355 -0.010619 0
-0.144223 -0.009433 0
-0.171601 -0.011224 0
-0.096687 -0.006324 0
-0.123346 -0.008067 0
-0.101632 -0.006647 0
-0.128596 -0.008411 0
-0.151673 -0.009920 0
-0.179519 -0.011741 0
-0.157919 -0.010329 0
-0.186066 -0.012170 0
-0.105715 -0.006914 0
-0.133656 -0.008742 0
-0.109057 -0.007133 0
-0.136960 -0.008958 0
-0.162958 -0.010658 0
-0.191256 -0.012509 0
-0.166491 -0.010889 0
-0.194558 -0.012725 0
-0.111021 -0.007261 0
-0.139134 -0.009100 0
-0.112106 -0.007332 0
-0.139978 -0.009155 0
-0.168435 -0.011017 0
-0.195356 -0.012777 0
-0.169188 -0.011066 0
-0.195716 -0.012801 0
-0.112359 -0.007349 0
-0.140133 -0.009165 0
-0.111779 -0.007311 0
-0.139430 -0.009119 0
-0.169226 -0.011068 0
-0.195922 -0.012814 0
-0.168382 -0.011013 0
-0.194743 -0.012737 0
-0.110909 -0.007254 0
-0.138420 -0.009053 0
-0.109847 -0.007185 0
-0.136348 -0.008918 0
-0.166349 -0.010880 0
-0.191124 -0.012500 0
-0.162732 -0.010644 0
-0.186312 -0.012186 0
-0.108333 -0.007086 0
-0.133311 -0.008719 0
-0.105531 -0.006902 0
-0.128528 -0.008406 0
-0.157692 -0.010314 0
-0.179418 -0.011735 0
-0.151620 -0.009917 0
-0.171632 -0.011226 0
-0.101581 -0.006644 0
-0.123309 -0.008065 0
-0.096713 -0.006326 0
-0.116334 -0.007609 0
-0.144266 -0.009436 0
-0.162407 -0.010622 0
-0.135254 -0.008846 0
-0.151352 -0.009899 0
-0.090530 -0.005921 0
-0.108143 -0.007073 0
-0.082316 -0.005384 0
-0.124080 -0.008115 0
-0.041229 -0.002697 0
-0.064876 -0.004243 0
-0.021495 -0.001406 0
-0.023219 -0.001519 0
-0.045962 -0.003006 0
-0.069947 -0.004575 0
-0.049149 -0.003215 0
-0.074262 -0.004857 0
-0.024594 -0.001609 0
-0.025599 -0.001674 0
-0.051602 -0.003375 0
-0.077298 -0.005056 0
-0.053415 -0.003494 0
-0.080116 -0.005240 0
-0.026351 -0.001724 0
-0.026960 -0.001763 0
-0.054821 -0.003586 0
-0.082009 -0.005364 0
-0.056035 -0.003665 0
-0.083276 -0.005447 0
-0.027526 -0.001800 0
-0.027687 -0.001811 0
-0.056787 -0.003714 0
-0.083836 -0.005483 0
-0.056842 -0.003718 0
-0.083577 -0.005466 0
-0.027578 -0.001804 0
-0.027583 -0.001804 0
-0.056735 -0.003711 0
-0.083155 -0.005439 0
-0.056548 -0.003699 0
-0.082534 -0.005398 0
-0.027399 -0.001792 0
-0.026911 -0.001760 0
-0.055854 -0.003653 0
-0.081409 -0.005325 0
-0.054761 -0.003582 0
-0.079941 -0.005229 0
-0.026342 -0.001723 0
-0.025685 -0.001680 0
-0.053494 -0.003499 0
-0.077372 -0.005061 0
-0.051549 -0.003372 0
-0.074084 -0.004845 0
-0.024457 -0.001600 0
-0.023139 -0.001513 0
-0.048928 -0.003200 0
-0.069924 -0.004573 0
-0.045795 -0.002995 0
-0.064822 -0.004240 0
-0.021411 -0.001400 0
-0.041144 -0.002691 0
-0.275418 -0.018014 0
-0.302430 -0.019780 0
-0.321302 -0.021015 0
-0.330981 -0.021648 0
-0.330957 -0.021646 0
-0.321009 -0.020996 0
-0.302172 -0.019764 0
-0.275183 -0.017998 0
-0.184949 -0.012097 0
-0.204243 -0.013359 0
-0.217644 -0.014235 0
-0.223169 -0.014596 0
-0.224332 -0.014672 0
-0.217817 -0.014246 0
-0.204387 -0.013368 0
-0.185003 -0.012100 0
-0.093112 -0.006090 0
-0.102962 -0.006734 0
-0.108479 -0.007095 0
-0.112237 -0.007341 0
-0.112210 -0.007339 0
-0.108461 -0.007094 0
-0.102931 -0.006732 0
-0.093120 -0.006091 0
-0.258874 -0.016932 0
-0.318187 -0.020811 0
-0.300278 -0.019640 0
-0.289530 -0.018937 0
-0.347708 -0.022742 0
-0.334032 -0.021847 0
-0.312585 -0.020445 0
-0.368324 -0.024090 0
-0.359307 -0.023500 0
-0.327000 -0.021387 0
-0.378970 -0.024787 0
-0.375015 -0.024528 0
-0.332302 -0.021734 0
-0.379097 -0.024795 0
-0.380506 -0.024887 0
-0.327415 -0.021415 0
-0.368468 -0.024100 0
-0.375177 -0.024538 0
-0.312920 -0.020467 0
-0.347867 -0.022752 0
-0.359447 -0.023510 0
-0.289943 -0.018964 0
-0.318235 -0.020814 0
-0.334203 -0.021859 0
-0.258955 -0.016937 0
-0.300314 -0.019642 0
-0.172937 -0.011311 0
-0.230659 -0.015086 0
-0.216298 -0.014147 0
-0.195594 -0.012793 0
-0.254180 -0.016625 0
-0.243521 -0.015927 0
-0.212041 -0.013869 0
-0.270591 -0.017698 0
-0.263590 -0.017240 0
-0.221990 -0.014519 0
-0.278826 -0.018237 0
-0.275983 -0.018051 0
-0.224279 -0.014669 0
-0.278940 -0.018244 0
-0.280051 -0.018317 0
-0.222708 -0.014566 0
-0.270677 -0.017704 0
-0.276047 -0.018055 0
-0.212500 -0.013899 0
-0.254509 -0.016646 0
-0.263073 -0.017206 0
-0.195618 -0.012794 0
-0.230786 -0.015095 0
-0.243502 -0.015926 0
-0.172986 -0.011314 0
-0.216363 -0.014151 0
-0.086436 -0.005653 0
-0.139402 -0.009118 0
-0.129800 -0.008490 0
-0.098796 -0.006462 0
-0.154272 -0.010090 0
-0.147786 -0.009666 0
-0.106971 -0.006996 0
-0.164140 -0.010736 0
-0.160170 -0.010476 0
-0.111565 -0.007297 0
-0.168771 -0.011038 0
-0.167470 -0.010953 0
-0.113139 -0.007400 0
-0.168864 -0.011045 0
-0.169737 -0.011102 0
-0.111530 -0.007295 0
-0.164081 -0.010732 0
-0.167491 -0.010955 0
-0.106972 -0.006997 0
-0.154249 -0.010089 0
-0.160086 -0.010470 0
-0.098955 -0.006472 0
-0.139515 -0.009125 0
-0.147845 -0.009670 0
-0.086602 -0.005664 0
-0.129861 -0.008494 0
-0.047224 -0.003089 0
-0.043645 -0.002855 0
-0.052178 -0.003413 0
-0.050092 -0.003276 0
-0.054904 -0.003591 0
-0.053704 -0.003512 0
-0.056499 -0.003695 0
-0.056003 -0.003663 0
-0.056487 -0.003695 0
-0.056371 -0.003687 0
-0.054895 -0.003590 0
-0.055981 -0.003661 0
-0.052071 -0.003406 0
-0.053687 -0.003511 0
-0.047038 -0.003077 0
-0.049768 -0.003255 0
-0.043572 -0.002850 0
-0.290545 -0.019003 0
-0.320334 -0.020951 0
-0.249896 -0.016344 0
-0.279758 -0.018298 0
-0.267495 -0.017496 0
-0.297039 -0.019428 0
-0.309532 -0.020245 0
-0.338834 -0.022161 0
-0.326433 -0.021350 0
-0.355219 -0.023233 0
-0.282849 -0.018500 0
-0.312080 -0.020412 0
-0.296381 -0.019385 0
-0.325420 -0.021284 0
-0.341216 -0.022317 0
-0.369359 -0.024158 0
-0.353874 -0.023145 0
-0.381226 -0.024934 0
-0.307929 -0.020140 0
-0.336358 -0.021999 0
-0.317385 -0.020759 0
-0.345262 -0.022582 0
-0.364198 -0.023820 0
-0.390518 -0.025542 0
-0.372065 -0.024335 0
-0.397309 -0.025986 0
-0.324606 -0.021231 0
-0.351501 -0.022990 0
-0.329457 -0.021548 0
-0.355483 -0.023250 0
-0.377396 -0.024684 0
-0.401369 -0.026252 0
-0.380146 -0.024863 0
-0.402828 -0.026347 0
-0.332111 -0.021722 0
-0.356922 -0.023345 0
-0.332100 -0.021721 0
-0.355539 -0.023254 0
-0.380210 -0.024868 0
-0.401430 -0.026256 0
-0.377541 -0.024693 0
-0.397386 -0.025991 0
-0.329651 -0.021561 0
-0.351785 -0.023008 0
-0.324668 -0.021235 0
-0.345196 -0.022578 0
-0.372218 -0.024345 0
-0.390586 -0.025546 0
-0.364339 -0.023830 0
-0.381293 -0.024938 0
-0.317405 -0.020760 0
-0.336593 -0.022015 0
-0.307969 -0.020143 0
-0.325377 -0.021281 0
-0.354023 -0.023155 0
-0.369435 -0.024163 0
-0.341380 -0.022328 0
-0.355302 -0.023239 0
-0.296457 -0.019390 0