# vtk DataFile Version 2.0
MyTitle
ASCII
DATASET UNSTRUCTURED_GRID
POINTS 2773 double
0.800000 -0.800000 0.000000
0.800000 0.800000 0.000000
-0.800000 0.800000 0.000000
-0.800000 -0.800000 0.000000
1.414214 -1.414214 0.000000
1.414214 1.414214 0.000000
-1.414214 1.414214 0.000000
-1.414214 -1.414214 0.000000
0.800000 -0.711111 0.000000
0.800000 -0.622222 0.000000
0.800000 -0.533333 0.000000
0.800000 -0.444444 0.000000
0.800000 -0.355556 0.000000
0.800000 -0.266667 0.000000
0.800000 -0.177778 0.000000
0.800000 -0.088889 0.000000
0.800000 -0.000000 0.000000
0.800000 0.088889 0.000000
0.800000 0.177778 0.000000
0.800000 0.266667 0.000000
0.800000 0.355556 0.000000
0.800000 0.444444 0.000000
0.800000 0.533333 0.000000
0.800000 0.622222 0.000000
0.800000 0.711111 0.000000
0.800000 -0.755556 0.000000
0.800000 -0.666667 0.000000
0.800000 -0.577778 0.000000
0.800000 -0.488889 0.000000
0.800000 -0.400000 0.000000
0.800000 -0.311111 0.000000
0.800000 -0.222222 0.000000
0.800000 -0.133333 0.000000
0.800000 -0.044444 0.000000
0.800000 0.044444 0.000000
0.800000 0.133333 0.000000
0.800000 0.222222 0.000000
0.800000 0.311111 0.000000
0.800000 0.400000 0.000000
0.800000 0.488889 0.000000
0.800000 0.577778 0.000000
0.800000 0.666667 0.000000
0.800000 0.755556 0.000000
0.711111 0.800000 0.000000
0.622222 0.800000 0.000000
0.533333 0.800000 0.000000
0.444444 0.800000 0.000000
0.355556 0.800000 0.000000
0.266667 0.800000 0.000000
0.177778 0.800000 0.000000
0.088889 0.800000 0.000000
0.000000 0.800000 0.000000
-0.088889 0.800000 0.000000
-0.177778 0.800000 0.000000
-0.266667 0.800000 0.000000
-0.355556 0.800000 0.000000
-0.444444 0.800000 0.000000
-0.533333 0.800000 0.000000
-0.622222 0.800000 0.000000
-0.711111 0.800000 0.000000
0.755556 0.800000 0.000000
0.666667 0.800000 0.000000
0.577778 0.800000 0.000000
0.488889 0.800000 0.000000
0.400000 0.800000 0.000000
0.311111 0.800000 0.000000
0.222222 0.800000 0.000000
0.133333 0.800000 0.000000
0.044444 0.800000 0.000000
-0.044444 0.800000 0.000000
-0.133333 0.800000 0.000000
-0.222222 0.800000 0.000000
-0.311111 0.800000 0.000000
-0.400000 0.800000 0.000000
-0.488889 0.800000 0.000000
-0.577778 0.800000 0.000000
-0.666667 0.800000 0.000000
-0.755556 0.800000 0.000000
-0.800000 0.711111 0.000000
-0.800000 0.622222 0.000000
-0.800000 0.533333 0.000000
-0.800000 0.444444 0.000000
-0.800000 0.355556 0.000000
-0.800000 0.266667 0.000000
-0.800000 0.177778 0.000000
-0.800000 0.088889 0.000000
-0.800000 0.000000 0.000000
-0.800000 -0.088889 0.000000
-0.800000 -0.177778 0.000000
-0.800000 -0.266667 0.000000
-0.800000 -0.355556 0.000000
-0.800000 -0.444444 0.000000
-0.800000 -0.533333 0.000000
-0.800000 -0.622222 0.000000
-0.800000 -0.711111 0.000000
-0.800000 0.755556 0.000000
-0.800000 0.666667 0.000000
-0.800000 0.577778 0.000000
-0.800000 0.488889 0.000000
-0.800000 0.400000 0.000000
-0.800000 0.311111 0.000000
-0.800000 0.222222 0.000000
-0.800000 0.133333 0.000000
-0.800000 0.044444 0.000000
-0.800000 -0.044444 0.000000
-0.800000 -0.133333 0.000000
-0.800000 -0.222222 0.000000
-0.800000 -0.311111 0.000000
-0.800000 -0.400000 0.000000
-0.800000 -0.488889 0.000000
-0.800000 -0.577778 0.000000
-0.800000 -0.666667 0.000000
-0.800000 -0.755556 0.000000
-0.711111 -0.800000 0.000000
-0.622222 -0.800000 0.000000
-0.533333 -0.800000 0.000000
-0.444444 -0.800000 0.000000
-0.355556 -0.800000 0.000000
-0.266667 -0.800000 0.000000
-0.177778 -0.800000 0.000000
-0.088889 -0.800000 0.000000
-0.000000 -0.800000 0.000000
0.088889 -0.800000 0.000000
0.177778 -0.800000 0.000000
0.266667 -0.800000 0.000000
0.355556 -0.800000 0.000000
0.444444 -0.800000 0.000000
0.533333 -0.800000 0.000000
0.622222 -0.800000 0.000000
0.711111 -0.800000 0.000000
-0.755556 -0.800000 0.000000
-0.666667 -0.800000 0.000000
-0.577778 -0.800000 0.000000
-0.488889 -0.800000 0.000000
-0.400000 -0.800000 0.000000
-0.311111 -0.800000 0.000000
-0.222222 -0.800000 0.000000
-0.133333 -0.800000 0.000000
-0.044444 -0.800000 0.000000
0.044444 -0.800000 0.000000
0.133333 -0.800000 0.000000
0.222222 -0.800000 0.000000
0.311111 -0.800000 0.000000
0.400000 -0.800000 0.000000
0.488889 -0.800000 0.000000
0.577778 -0.800000 0.000000
0.666667 -0.800000 0.000000
0.755556 -0.800000 0.000000
1.532089 -1.285575 0.000000
1.638304 -1.147153 0.000000
1.732051 -1.000000 0.000000
1.812616 -0.845237 0.000000
1.879385 -0.684040 0.000000
1.931852 -0.517638 0.000000
1.969616 -0.347296 0.000000
1.992389 -0.174311 0.000000
2.000000 -0.000000 0.000000
1.992389 0.174311 0.000000
1.969616 0.347296 0.000000
1.931852 0.517638 0.000000
1.879385 0.684040 0.000000
1.812616 0.845237 0.000000
1.732051 1.000000 0.000000
1.638304 1.147153 0.000000
1.532089 1.285575 0.000000
1.474555 -1.351180 0.000000
1.586707 -1.217523 0.000000
1.686783 -1.074599 0.000000
1.774022 -0.923497 0.000000
1.847759 -0.765367 0.000000
1.907434 -0.601412 0.000000
1.952592 -0.432879 0.000000
1.982890 -0.261052 0.000000
1.998096 -0.087239 0.000000
1.998096 0.087239 0.000000
1.982890 0.261052 0.000000
1.952592 0.432879 0.000000
1.907434 0.601412 0.000000
1.847759 0.765367 0.000000
1.774022 0.923497 0.000000
1.686783 1.074599 0.000000
1.586707 1.217523 0.000000
1.474555 1.351180 0.000000
1.285575 1.532089 0.000000
1.147153 1.638304 0.000000
1.000000 1.732051 0.000000
0.845237 1.812616 0.000000
0.684040 1.879385 0.000000
0.517638 1.931852 0.000000
0.347296 1.969616 0.000000
0.174311 1.992389 0.000000
0.000000 2.000000 0.000000
-0.174311 1.992389 0.000000
-0.347296 1.969616 0.000000
-0.517638 1.931852 0.000000
-0.684040 1.879385 0.000000
-0.845237 1.812616 0.000000
-1.000000 1.732051 0.000000
-1.147153 1.638304 0.000000
-1.285575 1.532089 0.000000
1.351180 1.474555 0.000000
1.217523 1.586707 0.000000
1.074599 1.686783 0.000000
0.923497 1.774022 0.000000
0.765367 1.847759 0.000000
0.601412 1.907434 0.000000
0.432879 1.952592 0.000000
0.261052 1.982890 0.000000
0.087239 1.998096 0.000000
-0.087239 1.998096 0.000000
-0.261052 1.982890 0.000000
-0.432879 1.952592 0.000000
-0.601412 1.907434 0.000000
-0.765367 1.847759 0.000000
-0.923497 1.774022 0.000000
-1.074599 1.686783 0.000000
-1.217523 1.586707 0.000000
-1.351180 1.474555 0.000000
-1.532089 1.285575 0.000000
-1.638304 1.147153 0.000000
-1.732051 1.000000 0.000000
-1.812616 0.845237 0.000000
-1.879385 0.684040 0.000000
-1.931852 0.517638 0.000000
-1.969616 0.347296 0.000000
-1.992389 0.174311 0.000000
-2.000000 0.000000 0.000000
-1.992389 -0.174311 0.000000
-1.969616 -0.347296 0.000000
-1.931852 -0.517638 0.000000
-1.879385 -0.684040 0.000000
-1.812616 -0.845237 0.000000
-1.732051 -1.000000 0.000000
-1.638304 -1.147153 0.000000
-1.532089 -1.285575 0.000000
-1.474555 1.351180 0.000000
-1.586707 1.217523 0.000000
-1.686783 1.074599 0.000000
-1.774022 0.923497 0.000000
-1.847759 0.765367 0.000000
-1.907434 0.601412 0.000000
-1.952592 0.432879 0.000000
-1.982890 0.261052 0.000000
-1.998096 0.087239 0.000000
-1.998096 -0.087239 0.000000
-1.982890 -0.261052 0.000000
-1.952592 -0.432879 0.000000
-1.907434 -0.601412 0.000000
-1.847759 -0.765367 0.000000
-1.774022 -0.923497 0.000000
-1.686783 -1.074599 0.000000
-1.586707 -1.217523 0.000000
-1.474555 -1.351180 0.000000
-1.285575 -1.532089 0.000000
-1.147153 -1.638304 0.000000
-1.000000 -1.732051 0.000000
-0.845237 -1.812616 0.000000
-0.684040 -1.879385 0.000000
-0.517638 -1.931852 0.000000
-0.347296 -1.969616 0.000000
-0.174311 -1.992389 0.000000
-0.000000 -2.000000 0.000000
0.174311 -1.992389 0.000000
0.347296 -1.969616 0.000000
0.517638 -1.931852 0.000000
0.684040 -1.879385 0.000000
0.845237 -1.812616 0.000000
1.000000 -1.732051 0.000000
1.147153 -1.638304 0.000000
1.285575 -1.532089 0.000000
-1.351180 -1.474555 0.000000
-1.217523 -1.586707 0.000000
-1.074599 -1.686783 0.000000
-0.923497 -1.774022 0.000000
-0.765367 -1.847759 0.000000
-0.601412 -1.907434 0.000000
-0.432879 -1.952592 0.000000
-0.261052 -1.982890 0.000000
-0.087239 -1.998096 0.000000
0.087239 -1.998096 0.000000
0.261052 -1.982890 0.000000
0.432879 -1.952592 0.000000
0.601412 -1.907434 0.000000
0.765367 -1.847759 0.000000
0.923497 -1.774022 0.000000
1.074599 -1.686783 0.000000
1.217523 -1.586707 0.000000
1.351180 -1.474555 0.000000
0.876777 -0.876777 0.000000
0.953553 -0.953553 0.000000
1.030330 -1.030330 0.000000
1.107107 -1.107107 0.000000
1.183883 -1.183883 0.000000
1.260660 -1.260660 0.000000
1.337437 -1.337437 0.000000
0.838388 -0.838388 0.000000
0.915165 -0.915165 0.000000
0.991942 -0.991942 0.000000
1.068718 -1.068718 0.000000
1.145495 -1.145495 0.000000
1.222272 -1.222272 0.000000
1.299049 -1.299049 0.000000
1.375825 -1.375825 0.000000
0.876777 0.876777 0.000000
0.953553 0.953553 0.000000
1.030330 1.030330 0.000000
1.107107 1.107107 0.000000
1.183883 1.183883 0.000000
1.260660 1.260660 0.000000
1.337437 1.337437 0.000000
0.838388 0.838388 0.000000
0.915165 0.915165 0.000000
0.991942 0.991942 0.000000
1.068718 1.068718 0.000000
1.145495 1.145495 0.000000
1.222272 1.222272 0.000000
1.299049 1.299049 0.000000
1.375825 1.375825 0.000000
-0.876777 0.876777 0.000000
-0.953553 0.953553 0.000000
-1.030330 1.030330 0.000000
-1.107107 1.107107 0.000000
-1.183883 1.183883 0.000000
-1.260660 1.260660 0.000000
-1.337437 1.337437 0.000000
-0.838388 0.838388 0.000000
-0.915165 0.915165 0.000000
-0.991942 0.991942 0.000000
-1.068718 1.068718 0.000000
-1.145495 1.145495 0.000000
-1.222272 1.222272 0.000000
-1.299049 1.299049 0.000000
-1.375825 1.375825 0.000000
-0.876777 -0.876777 0.000000
-0.953553 -0.953553 0.000000
-1.030330 -1.030330 0.000000
-1.107107 -1.107107 0.000000
-1.183883 -1.183883 0.000000
-1.260660 -1.260660 0.000000
-1.337437 -1.337437 0.000000
-0.838388 -0.838388 0.000000
-0.915165 -0.915165 0.000000
-0.991942 -0.991942 0.000000
-1.068718 -1.068718 0.000000
-1.145495 -1.145495 0.000000
-1.222272 -1.222272 0.000000
-1.299049 -1.299049 0.000000
-1.375825 -1.375825 0.000000
1.004570 -0.750138 0.000000
1.046902 -0.541729 0.000000
1.076366 -0.327598 0.000000
1.091686 -0.109645 0.000000
1.091564 0.109637 0.000000
1.076182 0.327573 0.000000
[...]
POINT_DATA 2773
VECTORS sol double
+0.247704 -0.001053 0
+0.247704 -0.001053 0
+0.247704 -0.001053 0
+0.247704 -0.001053 0
+0.000000 +0.000000 0
+0.000000 +0.000000 0
+0.000000 +0.000000 0
+0.000000 +0.000000 0
+0.202421 -0.000860 0
+0.152484 -0.000648 0
+0.100897 -0.000429 0
+0.050725 -0.000216 0
+0.004931 -0.000021 0
-0.033798 +0.000144 0
-0.063197 +0.000269 0
-0.081551 +0.000347 0
-0.087789 +0.000373 0
-0.081551 +0.000347 0
-0.063197 +0.000269 0
-0.033798 +0.000144 0
+0.004931 -0.000021 0
+0.050726 -0.000216 0
+0.100897 -0.000429 0
+0.152484 -0.000648 0
+0.202421 -0.000860 0
+0.225832 -0.000960 0
+0.177856 -0.000756 0
+0.126709 -0.000539 0
+0.075446 -0.000321 0
+0.027104 -0.000115 0
-0.015473 +0.000066 0
-0.049791 +0.000212 0
-0.073845 +0.000314 0
-0.086232 +0.000367 0
-0.086232 +0.000367 0
-0.073844 +0.000314 0
-0.049791 +0.000212 0
-0.015473 +0.000066 0
+0.027104 -0.000115 0
+0.075446 -0.000321 0
+0.126709 -0.000539 0
+0.177856 -0.000756 0
+0.225832 -0.000960 0
+0.202421 -0.000860 0
+0.152484 -0.000648 0
+0.100897 -0.000429 0
+0.050725 -0.000216 0
+0.004931 -0.000021 0
-0.033798 +0.000144 0
-0.063197 +0.000269 0
-0.081551 +0.000347 0
-0.087789 +0.000373 0
-0.081551 +0.000347 0
-0.063197 +0.000269 0
-0.033798 +0.000144 0
+0.004931 -0.000021 0
+0.050725 -0.000216 0
+0.100897 -0.000429 0
+0.152484 -0.000648 0
+0.202421 -0.000860 0
+0.225832 -0.000960 0
+0.177856 -0.000756 0
+0.126709 -0.000539 0
+0.075446 -0.000321 0
+0.027104 -0.000115 0
-0.015473 +0.000066 0
-0.049791 +0.000212 0
-0.073845 +0.000314 0
-0.086232 +0.000367 0
-0.086232 +0.000367 0
-0.073844 +0.000314 0
-0.049791 +0.000212 0
-0.015473 +0.000066 0
+0.027104 -0.000115 0
+0.075446 -0.000321 0
+0.126709 -0.000539 0
+0.177856 -0.000756 0
+0.225832 -0.000960 0
+0.202421 -0.000860 0
+0.152484 -0.000648 0
+0.100897 -0.000429 0
+0.050725 -0.000216 0
+0.004931 -0.000021 0
-0.033798 +0.000144 0
-0.063197 +0.000269 0
-0.081551 +0.000347 0
-0.087789 +0.000373 0
-0.081551 +0.000347 0
-0.063197 +0.000269 0
-0.033798 +0.000144 0
+0.004931 -0.000021 0
+0.050725 -0.000216 0
+0.100897 -0.000429 0
+0.152484 -0.000648 0
+0.202421 -0.000860 0
+0.225832 -0.000960 0
+0.177856 -0.000756 0
+0.126709 -0.000539 0
+0.075446 -0.000321 0
+0.027104 -0.000115 0
-0.015473 +0.000066 0
-0.049791 +0.000212 0
-0.073844 +0.000314 0
-0.086232 +0.000367 0
-0.086232 +0.000367 0
-0.073844 +0.000314 0
-0.049791 +0.000212 0
-0.015473 +0.000066 0
+0.027104 -0.000115 0
+0.075446 -0.000321 0
+0.126709 -0.000539 0
+0.177856 -0.000756 0
+0.225832 -0.000960 0
+0.202421 -0.000860 0
+0.152484 -0.000648 0
+0.100897 -0.000429 0
+0.050725 -0.000216 0
+0.004931 -0.000021 0
-0.033798 +0.000144 0
-0.063197 +0.000269 0
-0.081551 +0.000347 0
-0.087789 +0.000373 0
-0.081551 +0.000347 0
-0.063197 +0.000269 0
-0.033799 +0.000144 0
+0.004931 -0.000021 0
+0.050725 -0.000216 0
+0.100897 -0.000429 0
+0.152484 -0.000648 0
+0.202421 -0.000860 0
+0.225832 -0.000960 0
+0.177856 -0.000756 0
+0.126709 -0.000539 0
+0.075446 -0.000321 0
+0.027104 -0.000115 0
-0.015473 +0.000066 0
-0.049791 +0.000212 0
-0.073845 +0.000314 0
-0.086232 +0.000367 0
-0.086232 +0.000367 0
-0.073845 +0.000314 0
-0.049791 +0.000212 0
-0.015473 +0.000066 0
+0.027104 -0.000115 0
+0.075446 -0.000321 0
+0.126708 -0.000539 0
+0.177856 -0.000756 0
+0.225832 -0.000960 0
+0.000000 +0.000000 0
+0.000000 +0.000000 0
+0.000000 +0.000000 0
+0.000000 +0.000000 0
+0.000000 +0.000000 0
+0.000000 +0.000000 0
+0.000000 +0.000000 0
+0.000000 +0.000000 0
+0.000000 +0.000000 0
+0.000000 +0.000000 0
+0.000000 +0.000000 0
+0.000000 +0.000000 0
+0.000000 +0.000000 0
+0.000000 +0.000000 0
+0.000000 +0.000000 0
+0.000000 +0.000000 0
+0.000000 +0.000000 0
+0.000000 +0.000000 0
+0.000000 +0.000000 0
+0.000000 +0.000000 0
+0.000000 +0.000000 0
+0.000000 +0.000000 0
+0.000000 +0.000000 0
+0.000000 +0.000000 0
+0.000000 +0.000000 0
+0.000000 +0.000000 0
+0.000000 +0.000000 0
+0.000000 +0.000000 0
+0.000000 +0.000000 0
+0.000000 +0.000000 0
+0.000000 +0.000000 0
+0.000000 +0.000000 0
+0.000000 +0.000000 0
+0.000000 +0.000000 0
+0.000000 +0.000000 0
+0.000000 +0.000000 0
+0.000000 +0.000000 0
+0.000000 +0.000000 0
+0.000000 +0.000000 0
+0.000000 +0.000000 0
+0.000000 +0.000000 0
+0.000000 +0.000000 0
+0.000000 +0.000000 0
+0.000000 +0.000000 0
+0.000000 +0.000000 0
+0.000000 +0.000000 0
+0.000000 +0.000000 0
+0.000000 +0.000000 0
+0.000000 +0.000000 0
+0.000000 +0.000000 0
+0.000000 +0.000000 0
+0.000000 +0.000000 0
+0.000000 +0.000000 0
+0.000000 +0.000000 0
+0.000000 +0.000000 0
+0.000000 +0.000000 0
+0.000000 +0.000000 0
+0.000000 +0.000000 0
+0.000000 +0.000000 0
+0.000000 +0.000000 0
+0.000000 +0.000000 0
+0.000000 +0.000000 0
+0.000000 +0.000000 0
+0.000000 +0.000000 0
+0.000000 +0.000000 0
+0.000000 +0.000000 0
+0.000000 +0.000000 0
+0.000000 +0.000000 0
+0.000000 +0.000000 0
+0.000000 +0.000000 0
+0.000000 +0.000000 0
+0.000000 +0.000000 0
+0.000000 +0.000000 0
+0.000000 +0.000000 0
+0.000000 +0.000000 0
+0.000000 +0.000000 0
+0.000000 +0.000000 0
+0.000000 +0.000000 0
+0.000000 +0.000000 0
+0.000000 +0.000000 0
+0.000000 +0.000000 0
+0.000000 +0.000000 0
+0.000000 +0.000000 0
+0.000000 +0.000000 0
+0.000000 +0.000000 0
+0.000000 +0.000000 0
+0.000000 +0.000000 0
+0.000000 +0.000000 0
+0.000000 +0.000000 0
+0.000000 +0.000000 0
+0.000000 +0.000000 0
+0.000000 +0.000000 0
+0.000000 +0.000000 0
+0.000000 +0.000000 0
+0.000000 +0.000000 0
+0.000000 +0.000000 0
+0.000000 +0.000000 0
+0.000000 +0.000000 0
+0.000000 +0.000000 0
+0.000000 +0.000000 0
+0.000000 +0.000000 0
+0.000000 +0.000000 0
+0.000000 +0.000000 0
+0.000000 +0.000000 0
+0.000000 +0.000000 0
+0.000000 +0.000000 0
+0.000000 +0.000000 0
+0.000000 +0.000000 0
+0.000000 +0.000000 0
+0.000000 +0.000000 0
+0.000000 +0.000000 0
+0.000000 +0.000000 0
+0.000000 +0.000000 0
+0.000000 +0.000000 0
+0.000000 +0.000000 0
+0.000000 +0.000000 0
+0.000000 +0.000000 0
+0.000000 +0.000000 0
+0.000000 +0.000000 0
+0.000000 +0.000000 0
+0.000000 +0.000000 0
+0.000000 +0.000000 0
+0.000000 +0.000000 0
+0.000000 +0.000000 0
+0.000000 +0.000000 0
+0.000000 +0.000000 0
+0.000000 +0.000000 0
+0.000000 +0.000000 0
+0.000000 +0.000000 0
+0.000000 +0.000000 0
+0.000000 +0.000000 0
+0.000000 +0.000000 0
+0.000000 +0.000000 0
+0.000000 +0.000000 0
+0.000000 +0.000000 0
+0.000000 +0.000000 0
+0.000000 +0.000000 0
+0.000000 +0.000000 0
+0.000000 +0.000000 0
+0.000000 +0.000000 0
+0.305254 -0.001298 0
+0.331881 -0.001411 0
+0.327994 -0.001394 0
+0.296187 -0.001259 0
+0.240988 -0.001024 0
+0.168445 -0.000716 0
+0.085615 -0.000364 0
+0.280264 -0.001191 0
+0.322455 -0.001371 0
+0.333638 -0.001418 0
+0.315341 -0.001340 0
+0.271168 -0.001153 0
+0.206464 -0.000878 0
+0.127856 -0.000544 0
+0.042688 -0.000181 0
+0.305255 -0.001298 0
+0.331880 -0.001411 0
+0.327994 -0.001394 0
+0.296187 -0.001259 0
+0.240988 -0.001024 0
+0.168446 -0.000716 0
+0.085616 -0.000364 0
+0.280264 -0.001191 0
+0.322455 -0.001371 0
+0.333638 -0.001418 0
+0.315340 -0.001340 0
+0.271168 -0.001153 0
+0.206464 -0.000878 0
+0.127856 -0.000544 0
+0.042688 -0.000181 0
+0.305254 -0.001298 0
+0.331880 -0.001411 0
+0.327994 -0.001394 0
+0.296187 -0.001259 0
+0.240988 -0.001024 0
+0.168445 -0.000716 0
+0.085616 -0.000364 0
+0.280264 -0.001191 0
+0.322455 -0.001371 0
+0.333638 -0.001418 0
+0.315340 -0.001340 0
+0.271168 -0.001153 0
+0.206464 -0.000878 0
+0.127856 -0.000544 0
+0.042688 -0.000181 0
+0.305254 -0.001298 0
+0.331881 -0.001411 0
+0.327993 -0.001394 0
+0.296188 -0.001259 0
+0.240989 -0.001024 0
+0.168445 -0.000716 0
+0.085615 -0.000364 0
+0.280264 -0.001191 0
+0.322455 -0.001371 0
+0.333638 -0.001418 0
+0.315341 -0.001340 0
+0.271167 -0.001153 0
+0.206465 -0.000878 0
+0.127856 -0.000544 0
+0.042688 -0.000181 0
+0.310367 -0.001319 0
+0.276560 -0.001176 0
+0.243480 -0.001035 0
+0.223426 -0.000950 0
+0.223335 -0.000949 0
+0.243356 -0.001034 0
+0.276597 -0.001176 0
+0.310349 -0.001319 0
+0.319980 -0.001360 0
+0.330108 -0.001403 0
+0.333421 -0.001417 0
+0.333823 -0.001419 0
+0.333873 -0.001419 0
+0.333399 -0.001417 0
+0.330072 -0.001403 0
+0.319992 -0.001360 0
+0.199512 -0.000848 0
+0.217186 -0.000923 0
+0.228584 -0.000972 0
+0.232177 -0.000987 0
+0.230250 -0.000979 0
+0.226712 -0.000964 0
+0.217130 -0.000923 0
+0.199737 -0.000849 0
+0.323450 -0.001375 0
+0.249070 -0.001059 0
+0.279510 -0.001188 0
+0.294032 -0.001250 0
+0.182447 -0.000776 0
+0.215733 -0.000917 0
+0.258847 -0.001100 0
+0.123741 -0.000526 0
+0.150710 -0.000641 0
+0.230935 -0.000982 0
+0.089533 -0.000381 0
+0.102494 -0.000436 0
+0.220461 -0.000937 0
+0.089481 -0.000380 0
+0.084745 -0.000360 0
+0.230638 -0.000980 0
+0.123673 -0.000526 0
+0.102384 -0.000435 0
+0.258806 -0.001100 0
+0.182418 -0.000775 0
+0.151381 -0.000644 0
+0.294532 -0.001252 0
+0.249328 -0.001060 0
+0.216187 -0.000919 0
+0.323540 -0.001375 0
+0.279627 -0.001189 0
+0.310356 -0.001319 0
+0.333685 -0.001418 0
+0.333155 -0.001416 0
+0.326002 -0.001386 0
+0.326399 -0.001387 0
+0.330995 -0.001407 0
+0.332244 -0.001412 0
+0.314937 -0.001339 0
+0.320486 -0.001362 0
+0.333781 -0.001419 0
+0.307280 -0.001306 0
+0.310020 -0.001318 0
+0.333829 -0.001419 0
+0.307050 -0.001305 0
+0.306125 -0.001301 0
+0.333816 -0.001419 0
+0.314603 -0.001337 0
+0.309570 -0.001316 0
+0.332442 -0.001413 0
+0.326390 -0.001387 0
+0.320564 -0.001363 0
+0.326035 -0.001386 0
+0.333668 -0.001418 0
+0.330901 -0.001407 0
+0.310406 -0.001320 0
+0.333180 -0.001416 0
+0.187108 -0.000795 0
+0.273512 -0.001163 0
+0.260113 -0.001106 0
+0.210089 -0.000893 0
+0.291827 -0.001241 0
+0.284212 -0.001208 0
+0.224289 -0.000953 0
+0.302508 -0.001286 0
+0.298365 -0.001268 0
+0.230863 -0.000981 0
+0.306241 -0.001302 0
+0.305401 -0.001298 0
+0.231694 -0.000985 0
+0.306312 -0.001302 0
+0.306806 -0.001304 0
+0.228802 -0.000973 0
+0.302409 -0.001286 0
+0.305228 -0.001298 0
+0.223717 -0.000951 0
+0.291710 -0.001240 0
+0.297994 -0.001267 0
+0.209964 -0.000893 0
+0.273628 -0.001163 0
+0.284209 -0.001208 0
+0.187233 -0.000796 0
+0.260183 -0.001106 0
+0.106345 -0.000452 0
+0.098631 -0.000419 0
+0.116908 -0.000497 0
+0.112460 -0.000478 0
+0.122899 -0.000522 0
+0.120223 -0.000511 0
+0.126087 -0.000536 0
+0.125380 -0.000533 0
+0.125632 -0.000534 0
+0.125607 -0.000534 0
+0.122685 -0.000522 0
+0.124822 -0.000531 0
+0.117288 -0.000499 0
+0.120181 -0.000511 0
+0.105990 -0.000451 0
+0.111854 -0.000475 0
+0.098256 -0.000418 0
+0.293101 -0.001246 0
+0.244950 -0.001041 0
+0.328352 -0.001396 0
+0.305762 -0.001300 0
+0.317299 -0.001349 0
+0.284389 -0.001209 0
+0.264671 -0.001125 0
+0.204909 -0.000871 0
+0.232458 -0.000988 0
+0.162483 -0.000691 0
+0.302331 -0.001285 0
+0.259880 -0.001105 0
+0.285141 -0.001212 0
+0.234769 -0.000998 0
+0.198796 -0.000845 0
+0.120737 -0.000513 0
+0.165975 -0.000706 0
+0.081853 -0.000348 0
+0.267308 -0.001136 0
+0.210214 -0.000894 0
+0.250518 -0.001065 0
+0.189179 -0.000804 0
+0.136322 -0.000579 0
+0.048888 -0.000208 0
+0.111983 -0.000476 0
+0.023424 -0.000100 0
+0.236376 -0.001005 0
+0.172346 -0.000733 0
+0.226203 -0.000962 0
+0.162169 -0.000689 0
+0.094705 -0.000403 0
+0.007691 -0.000033 0
+0.085745 -0.000364 0
+0.002131 -0.000009 0
+0.220899 -0.000939 0
+0.158294 -0.000673 0
+0.220852 -0.000939 0
+0.162090 -0.000689 0
+0.085719 -0.000364 0
+0.007663 -0.000033 0
+0.094623 -0.000402 0
+0.023362 -0.000099 0
+0.226006 -0.000961 0
+0.172116 -0.000732 0
+0.236167 -0.001004 0
+0.189072 -0.000804 0
+0.111893 -0.000476 0
+0.048850 -0.000208 0
+0.136636 -0.000581 0
+0.082234 -0.000350 0
+0.250437 -0.001065 0
+0.210470 -0.000895 0
+0.267309 -0.001136 0
+0.234782 -0.000998 0
+0.166281 -0.000707 0
+0.120721 -0.000513 0
+0.199025 -0.000846 0
+0.162751 -0.000692 0
+0.285434 -0.001213 0
+0.260399 -0.001107 0
+0.302543 -0.001286 0
+0.284476 -0.001209 0
+0.232808 -0.000990 0
+0.205065 -0.000872 0
+0.264854 -0.001126 0
+0.245024 -0.001042 0
+0.317349 -0.001349 0
+0.305878 -0.001300 0
+0.328385 -0.001396 0
+0.293151 -0.001246 0
+0.331277 -0.001408 0
+0.332532 -0.001414 0
+0.304069 -0.001293 0
+0.325586 -0.001384 0
+0.315815 -0.001343 0
+0.331191 -0.001408 0
+0.333880 -0.001419 0
+0.326841 -0.001389 0
+0.332622 -0.001414 0
+0.317842 -0.001351 0
+0.323479 -0.001375 0
+0.333577 -0.001418 0
+0.328453 -0.001396 0
+0.333760 -0.001419 0
+0.328764 -0.001398 0
+0.307309 -0.001306 0
+0.323351 -0.001375 0
+0.295866 -0.001258 0
+0.331438 -0.001409 0
+0.332531 -0.001414 0
+0.333017 -0.001416 0
+0.330612 -0.001405 0
+0.317433 -0.001349 0
+0.285749 -0.001215 0
+0.312071 -0.001327 0
+0.277249 -0.001179 0
+0.333682 -0.001418 0
+0.328834 -0.001398 0
+0.333835 -0.001419 0
+0.328044 -0.001394 0
+0.308135 -0.001310 0
+0.272335 -0.001158 0
+0.306146 -0.001301 0
+0.270342 -0.001149 0
+0.333854 -0.001419 0
+0.327747 -0.001393 0
+0.333875 -0.001419 0
+0.327743 -0.001393 0
+0.306028 -0.001301 0
+0.272126 -0.001157 0
+0.307789 -0.001308 0
+0.276793 -0.001177 0
+0.333871 -0.001419 0
+0.328612 -0.001397 0
+0.333699 -0.001419 0
+0.330570 -0.001405 0
+0.311678 -0.001325 0
+0.285438 -0.001213 0
+0.317320 -0.001349 0
+0.295916 -0.001258 0
+0.333076 -0.001416 0
+0.332449 -0.001413 0
+0.331546 -0.001409 0
+0.333764 -0.001419 0
+0.323382 -0.001375 0
+0.307314 -0.001306 0
+0.328697 -0.001397 0
+0.317890 -0.001351 0
+0.328446 -0.001396 0
+0.333596 -0.001418 0
+0.323502 -0.001375 0
+0.331222 -0.001408 0
+0.332571 -0.001414 0
+0.326789 -0.001389 0
+0.333885 -0.001419 0
+0.332531 -0.001414 0
+0.315843 -0.001343 0
+0.325642 -0.001384 0
+0.304096 -0.001293 0
+0.331301 -0.001408 0
+0.251521 -0.001069 0
+0.288305 -0.001226 0
+0.178934 -0.000761 0
+0.225861 -0.000960 0
+0.194432 -0.000827 0
+0.239296 -0.001017 0
+0.267675 -0.001138 0
+0.300452 -0.001277 0
+0.279664 -0.001189 0
+0.309276 -0.001315 0
+0.205909 -0.000875 0
+0.250441 -0.001065 0
+0.214726 -0.000913 0
+0.258289 -0.001098 0
+0.288748 -0.001227 0
+0.315826 -0.001343 0
+0.295789 -0.001257 0
+0.320518 -0.001363 0
+0.221824 -0.000943 0
+0.265541 -0.001129 0
+0.227508 -0.000967 0
+0.270107 -0.001148 0
+0.301071 -0.001280 0
+0.323758 -0.001376 0
+0.304560 -0.001295 0
+0.325595 -0.001384 0
+0.230792 -0.000981 0
+0.273037 -0.001161 0
+0.232589 -0.000989 0
+0.274160 -0.001165 0
+0.306403 -0.001302 0
+0.326013 -0.001386 0
+0.307101 -0.001305 0
+0.326198 -0.001387 0
+0.233007 -0.000990 0
+0.274363 -0.001166 0
+0.232050 -0.000986 0
+0.273432 -0.001162 0
+0.307136 -0.001306 0
+0.326302 -0.001387 0
+0.306353 -0.001302 0
+0.325692 -0.001384 0
+0.230606 -0.000980 0
+0.272081 -0.001157 0
+0.228835 -0.000973 0
+0.269272 -0.001145 0
+0.304423 -0.001294 0
+0.323682 -0.001376 0
+0.300843 -0.001279 0
+0.320681 -0.001363 0
+0.226286 -0.000962 0
+0.265056 -0.001127 0
+0.221508 -0.000942 0
+0.258190 -0.001098 0
+0.295542 -0.001256 0
+0.315748 -0.001342 0
+0.288686 -0.001227 0
+0.309304 -0.001315 0
+0.214637 -0.000912 0
+0.250385 -0.001064 0
+0.205957 -0.000876 0
+0.239465 -0.001018 0
+0.279718 -0.001189 0
+0.300506 -0.001277 0
+0.267768 -0.001138 0
+0.288367 -0.001226 0
+0.194608 -0.000827 0
+0.225958 -0.000961 0
+0.178997 -0.000761 0
+0.251557 -0.001069 0
+0.093472 -0.000397 0
+0.144058 -0.000612 0
+0.049250 -0.000209 0
+0.053168 -0.000226 0
+0.103849 -0.000441 0
+0.154452 -0.000657 0
+0.110772 -0.000471 0
+0.163149 -0.000694 0
+0.056286 -0.000239 0
+0.058562 -0.000249 0
+0.116062 -0.000493 0
+0.169184 -0.000719 0
+0.119951 -0.000510 0
+0.174720 -0.000743 0
+0.060263 -0.000256 0
+0.061639 -0.000262 0
+0.122955 -0.000523 0
+0.178402 -0.000758 0
+0.125538 -0.000534 0
+0.180852 -0.000769 0
+0.062917 -0.000267 0
+0.063281 -0.000269 0
+0.127135 -0.000540 0
+0.181929 -0.000773 0
+0.127251 -0.000541 0
+0.181432 -0.000771 0
+0.063034 -0.000268 0
+0.063046 -0.000268 0
+0.127024 -0.000540 0
+0.180618 -0.000768 0
+0.126628 -0.000538 0
+0.179419 -0.000763 0
+0.062629 -0.000266 0
+0.061529 -0.000262 0
+0.125152 -0.000532 0
+0.177240 -0.000753 0
+0.122827 -0.000522 0
+0.174378 -0.000741 0
+0.060242 -0.000256 0
+0.058756 -0.000250 0
+0.120120 -0.000511 0
+0.169330 -0.000720 0
+0.115949 -0.000493 0
+0.162794 -0.000692 0
+0.055976 -0.000238 0
+0.052987 -0.000225 0
+0.110292 -0.000469 0
+0.154406 -0.000656 0
+0.103484 -0.000440 0
+0.143944 -0.000612 0
+0.049061 -0.000209 0
+0.093285 -0.000397 0
+0.310203 -0.001319 0
+0.276276 -0.001174 0
+0.243090 -0.001033 0
+0.222922 -0.000948 0
+0.222975 -0.000948 0
+0.243667 -0.001036 0
+0.276676 -0.001176 0
+0.310431 -0.001320 0
+0.319773 -0.001359 0
+0.329960 -0.001403 0
+0.333371 -0.001417 0
+0.333863 -0.001419 0
+0.333899 -0.001419 0
+0.333395 -0.001417 0
+0.330012 -0.001403 0
+0.319810 -0.001359 0
+0.199389 -0.000848 0
+0.217052 -0.000923 0
+0.226522 -0.000963 0
+0.232795 -0.000990 0
+0.232751 -0.000989 0
+0.226492 -0.000963 0
+0.216998 -0.000922 0
+0.199404 -0.000848 0
+0.323460 -0.001375 0
+0.249123 -0.001059 0
+0.279554 -0.001188 0
+0.294426 -0.001252 0
+0.182882 -0.000777 0
+0.216112 -0.000919 0
+0.259417 -0.001103 0
+0.124223 -0.000528 0
+0.151164 -0.000643 0
+0.231480 -0.000984 0
+0.089789 -0.000382 0
+0.102913 -0.000437 0
+0.220000 -0.000935 0
+0.089360 -0.000380 0
+0.084583 -0.000360 0
+0.230604 -0.000980 0
+0.123776 -0.000526 0
+0.102385 -0.000435 0
+0.258820 -0.001100 0
+0.182470 -0.000776 0
+0.150760 -0.000641 0
+0.293900 -0.001249 0
+0.249031 -0.001059 0
+0.215725 -0.000917 0
+0.323408 -0.001375 0
+0.279499 -0.001188 0
+0.310458 -0.001320 0
+0.333663 -0.001418 0
+0.333174 -0.001416 0
+0.326144 -0.001386 0
+0.326223 -0.001387 0
+0.330897 -0.001407 0
+0.332322 -0.001413 0
+0.314647 -0.001338 0
+0.320245 -0.001361 0
+0.333806 -0.001419 0
+0.306776 -0.001304 0
+0.309651 -0.001316 0
+0.333897 -0.001419 0
+0.306656 -0.001304 0
+0.305484 -0.001299 0
+0.333845 -0.001419 0
+0.314571 -0.001337 0
+0.309588 -0.001316 0
+0.332429 -0.001413 0
+0.326042 -0.001386 0
+0.320620 -0.001363 0
+0.326156 -0.001386 0
+0.333651 -0.001418 0
+0.330904 -0.001407 0
+0.310501 -0.001320 0
+0.333184 -0.001416 0
+0.186906 -0.000795 0
+0.273399 -0.001162 0
+0.260050 -0.001105 0
+0.209699 -0.000891 0
+0.291742 -0.001240 0
+0.284103 -0.001208 0
+0.223971 -0.000952 0
+0.302255 -0.001285 0
+0.298190 -0.001268 0
+0.231689 -0.000985 0
+0.306708 -0.001304 0
+0.305488 -0.001299 0
+0.234281 -0.000996 0
+0.306794 -0.001304 0
+0.307599 -0.001308 0
+0.231632 -0.000985 0
+0.302196 -0.001285 0
+0.305509 -0.001299 0
+0.223973 -0.000952 0
+0.291717 -0.001240 0
+0.298102 -0.001267 0
+0.209981 -0.000893 0
+0.273549 -0.001163 0
+0.284174 -0.001208 0
+0.187222 -0.000796 0
+0.260139 -0.001106 0
+0.106579 -0.000453 0
+0.098773 -0.000420 0
+0.117276 -0.000499 0
+0.112788 -0.000479 0
+0.123103 -0.000523 0
+0.120541 -0.000512 0
+0.126494 -0.000538 0
+0.125439 -0.000533 0
+0.126467 -0.000538 0
+0.126219 -0.000537 0
+0.123085 -0.000523 0
+0.125394 -0.000533 0
+0.117046 -0.000498 0
+0.120506 -0.000512 0
+0.106175 -0.000451 0
+0.112089 -0.000476 0
+0.098614 -0.000419 0
+0.293119 -0.001246 0
+0.244977 -0.001041 0
+0.328356 -0.001396 0
+0.305786 -0.001300 0
+0.317237 -0.001349 0
+0.284291 -0.001209 0
+0.264720 -0.001125 0
+0.204941 -0.000871 0
+0.232662 -0.000989 0
+0.162707 -0.000692 0
+0.302411 -0.001286 0
+0.260298 -0.001107 0
+0.285229 -0.001212 0
+0.234765 -0.000998 0
+0.199205 -0.000847 0
+0.120989 -0.000514 0
+0.166420 -0.000707 0
+0.082111 -0.000349 0
+0.267424 -0.001137 0
+0.210765 -0.000896 0
+0.250631 -0.001065 0
+0.189143 -0.000804 0
+0.136790 -0.000581 0
+0.049159 -0.000209 0
+0.112435 -0.000478 0
+0.023658 -0.000101 0
+0.236440 -0.001005 0
+0.172860 -0.000735 0
+0.226233 -0.000962 0
+0.161972 -0.000689 0
+0.095044 -0.000404 0
+0.007833 -0.000033 0
+0.085792 -0.000365 0
+0.002042 -0.000009 0
+0.220414 -0.000937 0
+0.157943 -0.000671 0
+0.220440 -0.000937 0
+0.161818 -0.000688 0
+0.085576 -0.000364 0
+0.007595 -0.000032 0
+0.094564 -0.000402 0
+0.023363 -0.000099 0
+0.225811 -0.000960 0
+0.172097 -0.000732 0
+0.236312 -0.001005 0
+0.189309 -0.000805 0
+0.111947 -0.000476 0
+0.048908 -0.000208 0
+0.136365 -0.000580 0
+0.081881 -0.000348 0
+0.250594 -0.001065 0
+0.210219 -0.000894 0
+0.267356 -0.001137 0
+0.234854 -0.000998 0
+0.166011 -0.000706 0
+0.120750 -0.000513 0
+0.198803 -0.000845 0
+0.162478 -0.000691 0
+0.285122 -0.001212 0