# vtk DataFile Version 2.0
MyTitle
ASCII
DATASET UNSTRUCTURED_GRID
POINTS 2773 double
0.800000 -0.800000 0.000000
0.800000 0.800000 0.000000
-0.800000 0.800000 0.000000
-0.800000 -0.800000 0.000000
1.414214 -1.414214 0.000000
1.414214 1.414214 0.000000
-1.414214 1.414214 0.000000
-1.414214 -1.414214 0.000000
0.800000 -0.711111 0.000000
0.800000 -0.622222 0.000000
0.800000 -0.533333 0.000000
0.800000 -0.444444 0.000000
0.800000 -0.355556 0.000000
0.800000 -0.266667 0.000000
0.800000 -0.177778 0.000000
0.800000 -0.088889 0.000000
0.800000 -0.000000 0.000000
0.800000 0.088889 0.000000
0.800000 0.177778 0.000000
0.800000 0.266667 0.000000
0.800000 0.355556 0.000000
0.800000 0.444444 0.000000
0.800000 0.533333 0.000000
0.800000 0.622222 0.000000
0.800000 0.711111 0.000000
0.800000 -0.755556 0.000000
0.800000 -0.666667 0.000000
0.800000 -0.577778 0.000000
0.800000 -0.488889 0.000000
0.800000 -0.400000 0.000000
0.800000 -0.311111 0.000000
0.800000 -0.222222 0.000000
0.800000 -0.133333 0.000000
0.800000 -0.044444 0.000000
0.800000 0.044444 0.000000
0.800000 0.133333 0.000000
0.800000 0.222222 0.000000
0.800000 0.311111 0.000000
0.800000 0.400000 0.000000
0.800000 0.488889 0.000000
0.800000 0.577778 0.000000
0.800000 0.666667 0.000000
0.800000 0.755556 0.000000
0.711111 0.800000 0.000000
0.622222 0.800000 0.000000
0.533333 0.800000 0.000000
0.444444 0.800000 0.000000
0.355556 0.800000 0.000000
0.266667 0.800000 0.000000
0.177778 0.800000 0.000000
0.088889 0.800000 0.000000
0.000000 0.800000 0.000000
-0.088889 0.800000 0.000000
-0.177778 0.800000 0.000000
-0.266667 0.800000 0.000000
-0.355556 0.800000 0.000000
-0.444444 0.800000 0.000000
-0.533333 0.800000 0.000000
-0.622222 0.800000 0.000000
-0.711111 0.800000 0.000000
0.755556 0.800000 0.000000
0.666667 0.800000 0.000000
0.577778 0.800000 0.000000
0.488889 0.800000 0.000000
0.400000 0.800000 0.000000
0.311111 0.800000 0.000000
0.222222 0.800000 0.000000
0.133333 0.800000 0.000000
0.044444 0.800000 0.000000
-0.044444 0.800000 0.000000
-0.133333 0.800000 0.000000
-0.222222 0.800000 0.000000
-0.311111 0.800000 0.000000
-0.400000 0.800000 0.000000
-0.488889 0.800000 0.000000
-0.577778 0.800000 0.000000
-0.666667 0.800000 0.000000
-0.755556 0.800000 0.000000
-0.800000 0.711111 0.000000
-0.800000 0.622222 0.000000
-0.800000 0.533333 0.000000
-0.800000 0.444444 0.000000
-0.800000 0.355556 0.000000
-0.800000 0.266667 0.000000
-0.800000 0.177778 0.000000
-0.800000 0.088889 0.000000
-0.800000 0.000000 0.000000
-0.800000 -0.088889 0.000000
-0.800000 -0.177778 0.000000
-0.800000 -0.266667 0.000000
-0.800000 -0.355556 0.000000
-0.800000 -0.444444 0.000000
-0.800000 -0.533333 0.000000
-0.800000 -0.622222 0.000000
-0.800000 -0.711111 0.000000
-0.800000 0.755556 0.000000
-0.800000 0.666667 0.000000
-0.800000 0.577778 0.000000
-0.800000 0.488889 0.000000
-0.800000 0.400000 0.000000
-0.800000 0.311111 0.000000
-0.800000 0.222222 0.000000
-0.800000 0.133333 0.000000
-0.800000 0.044444 0.000000
-0.800000 -0.044444 0.000000
-0.800000 -0.133333 0.000000
-0.800000 -0.222222 0.000000
-0.800000 -0.311111 0.000000
-0.800000 -0.400000 0.000000
-0.800000 -0.488889 0.000000
-0.800000 -0.577778 0.000000
-0.800000 -0.666667 0.000000
-0.800000 -0.755556 0.000000
-0.711111 -0.800000 0.000000
-0.622222 -0.800000 0.000000
-0.533333 -0.800000 0.000000
-0.444444 -0.800000 0.000000
-0.355556 -0.800000 0.000000
-0.266667 -0.800000 0.000000
-0.177778 -0.800000 0.000000
-0.088889 -0.800000 0.000000
-0.000000 -0.800000 0.000000
0.088889 -0.800000 0.000000
0.177778 -0.800000 0.000000
0.266667 -0.800000 0.000000
0.355556 -0.800000 0.000000
0.444444 -0.800000 0.000000
0.533333 -0.800000 0.000000
0.622222 -0.800000 0.000000
0.711111 -0.800000 0.000000
-0.755556 -0.800000 0.000000
-0.666667 -0.800000 0.000000
-0.577778 -0.800000 0.000000
-0.488889 -0.800000 0.000000
-0.400000 -0.800000 0.000000
-0.311111 -0.800000 0.000000
-0.222222 -0.800000 0.000000
-0.133333 -0.800000 0.000000
-0.044444 -0.800000 0.000000
0.044444 -0.800000 0.000000
0.133333 -0.800000 0.000000
0.222222 -0.800000 0.000000
0.311111 -0.800000 0.000000
0.400000 -0.800000 0.000000
0.488889 -0.800000 0.000000
0.577778 -0.800000 0.000000
0.666667 -0.800000 0.000000
0.755556 -0.800000 0.000000
1.532089 -1.285575 0.000000
1.638304 -1.147153 0.000000
1.732051 -1.000000 0.000000
1.812616 -0.845237 0.000000
1.879385 -0.684040 0.000000
1.931852 -0.517638 0.000000
1.969616 -0.347296 0.000000
1.992389 -0.174311 0.000000
2.000000 -0.000000 0.000000
1.992389 0.174311 0.000000
1.969616 0.347296 0.000000
1.931852 0.517638 0.000000
1.879385 0.684040 0.000000
1.812616 0.845237 0.000000
1.732051 1.000000 0.000000
1.638304 1.147153 0.000000
1.532089 1.285575 0.000000
1.474555 -1.351180 0.000000
1.586707 -1.217523 0.000000
1.686783 -1.074599 0.000000
1.774022 -0.923497 0.000000
1.847759 -0.765367 0.000000
1.907434 -0.601412 0.000000
1.952592 -0.432879 0.000000
1.982890 -0.261052 0.000000
1.998096 -0.087239 0.000000
1.998096 0.087239 0.000000
1.982890 0.261052 0.000000
1.952592 0.432879 0.000000
1.907434 0.601412 0.000000
1.847759 0.765367 0.000000
1.774022 0.923497 0.000000
1.686783 1.074599 0.000000
1.586707 1.217523 0.000000
1.474555 1.351180 0.000000
1.285575 1.532089 0.000000
1.147153 1.638304 0.000000
1.000000 1.732051 0.000000
0.845237 1.812616 0.000000
0.684040 1.879385 0.000000
0.517638 1.931852 0.000000
0.347296 1.969616 0.000000
0.174311 1.992389 0.000000
0.000000 2.000000 0.000000
-0.174311 1.992389 0.000000
-0.347296 1.969616 0.000000
-0.517638 1.931852 0.000000
-0.684040 1.879385 0.000000
-0.845237 1.812616 0.000000
-1.000000 1.732051 0.000000
-1.147153 1.638304 0.000000
-1.285575 1.532089 0.000000
1.351180 1.474555 0.000000
1.217523 1.586707 0.000000
1.074599 1.686783 0.000000
0.923497 1.774022 0.000000
0.765367 1.847759 0.000000
0.601412 1.907434 0.000000
0.432879 1.952592 0.000000
0.261052 1.982890 0.000000
0.087239 1.998096 0.000000
-0.087239 1.998096 0.000000
-0.261052 1.982890 0.000000
-0.432879 1.952592 0.000000
-0.601412 1.907434 0.000000
-0.765367 1.847759 0.000000
-0.923497 1.774022 0.000000
-1.074599 1.686783 0.000000
-1.217523 1.586707 0.000000
-1.351180 1.474555 0.000000
-1.532089 1.285575 0.000000
-1.638304 1.147153 0.000000
-1.732051 1.000000 0.000000
-1.812616 0.845237 0.000000
-1.879385 0.684040 0.000000
-1.931852 0.517638 0.000000
-1.969616 0.347296 0.000000
-1.992389 0.174311 0.000000
-2.000000 0.000000 0.000000
-1.992389 -0.174311 0.000000
-1.969616 -0.347296 0.000000
-1.931852 -0.517638 0.000000
-1.879385 -0.684040 0.000000
-1.812616 -0.845237 0.000000
-1.732051 -1.000000 0.000000
-1.638304 -1.147153 0.000000
-1.532089 -1.285575 0.000000
-1.474555 1.351180 0.000000
-1.586707 1.217523 0.000000
-1.686783 1.074599 0.000000
-1.774022 0.923497 0.000000
-1.847759 0.765367 0.000000
-1.907434 0.601412 0.000000
-1.952592 0.432879 0.000000
-1.982890 0.261052 0.000000
-1.998096 0.087239 0.000000
-1.998096 -0.087239 0.000000
-1.982890 -0.261052 0.000000
-1.952592 -0.432879 0.000000
-1.907434 -0.601412 0.000000
-1.847759 -0.765367 0.000000
-1.774022 -0.923497 0.000000
-1.686783 -1.074599 0.000000
-1.586707 -1.217523 0.000000
-1.474555 -1.351180 0.000000
-1.285575 -1.532089 0.000000
-1.147153 -1.638304 0.000000
-1.000000 -1.732051 0.000000
-0.845237 -1.812616 0.000000
-0.684040 -1.879385 0.000000
-0.517638 -1.931852 0.000000
-0.347296 -1.969616 0.000000
-0.174311 -1.992389 0.000000
-0.000000 -2.000000 0.000000
0.174311 -1.992389 0.000000
0.347296 -1.969616 0.000000
0.517638 -1.931852 0.000000
0.684040 -1.879385 0.000000
0.845237 -1.812616 0.000000
1.000000 -1.732051 0.000000
1.147153 -1.638304 0.000000
1.285575 -1.532089 0.000000
-1.351180 -1.474555 0.000000
-1.217523 -1.586707 0.000000
-1.074599 -1.686783 0.000000
-0.923497 -1.774022 0.000000
-0.765367 -1.847759 0.000000
-0.601412 -1.907434 0.000000
-0.432879 -1.952592 0.000000
-0.261052 -1.982890 0.000000
-0.087239 -1.998096 0.000000
0.087239 -1.998096 0.000000
0.261052 -1.982890 0.000000
0.432879 -1.952592 0.000000
0.601412 -1.907434 0.000000
0.765367 -1.847759 0.000000
0.923497 -1.774022 0.000000
1.074599 -1.686783 0.000000
1.217523 -1.586707 0.000000
1.351180 -1.474555 0.000000
0.876777 -0.876777 0.000000
0.953553 -0.953553 0.000000
1.030330 -1.030330 0.000000
1.107107 -1.107107 0.000000
1.183883 -1.183883 0.000000
1.260660 -1.260660 0.000000
1.337437 -1.337437 0.000000
0.838388 -0.838388 0.000000
0.915165 -0.915165 0.000000
0.991942 -0.991942 0.000000
1.068718 -1.068718 0.000000
1.145495 -1.145495 0.000000
1.222272 -1.222272 0.000000
1.299049 -1.299049 0.000000
1.375825 -1.375825 0.000000
0.876777 0.876777 0.000000
0.953553 0.953553 0.000000
1.030330 1.030330 0.000000
1.107107 1.107107 0.000000
1.183883 1.183883 0.000000
1.260660 1.260660 0.000000
1.337437 1.337437 0.000000
0.838388 0.838388 0.000000
0.915165 0.915165 0.000000
0.991942 0.991942 0.000000
1.068718 1.068718 0.000000
1.145495 1.145495 0.000000
1.222272 1.222272 0.000000
1.299049 1.299049 0.000000
1.375825 1.375825 0.000000
-0.876777 0.876777 0.000000
-0.953553 0.953553 0.000000
-1.030330 1.030330 0.000000
-1.107107 1.107107 0.000000
-1.183883 1.183883 0.000000
-1.260660 1.260660 0.000000
-1.337437 1.337437 0.000000
-0.838388 0.838388 0.000000
-0.915165 0.915165 0.000000
-0.991942 0.991942 0.000000
-1.068718 1.068718 0.000000
-1.145495 1.145495 0.000000
-1.222272 1.222272 0.000000
-1.299049 1.299049 0.000000
-1.375825 1.375825 0.000000
-0.876777 -0.876777 0.000000
-0.953553 -0.953553 0.000000
-1.030330 -1.030330 0.000000
-1.107107 -1.107107 0.000000
-1.183883 -1.183883 0.000000
-1.260660 -1.260660 0.000000
-1.337437 -1.337437 0.000000
-0.838388 -0.838388 0.000000
-0.915165 -0.915165 0.000000
-0.991942 -0.991942 0.000000
-1.068718 -1.068718 0.000000
-1.145495 -1.145495 0.000000
-1.222272 -1.222272 0.000000
-1.299049 -1.299049 0.000000
-1.375825 -1.375825 0.000000
1.004570 -0.750138 0.000000
1.046902 -0.541729 0.000000
1.076366 -0.327598 0.000000
1.091686 -0.109645 0.000000
1.091564 0.109637 0.000000
1.076182 0.327573 0.000000
[...]
POINT_DATA 2773
VECTORS sol double
-0.181271 +0.412384 0
+0.130443 -0.296937 0
+0.181271 -0.412384 0
-0.130443 +0.296937 0
+0.000000 +0.000000 0
+0.000000 +0.000000 0
+0.000000 +0.000000 0
+0.000000 +0.000000 0
-0.177183 +0.403074 0
-0.169363 +0.385272 0
-0.158002 +0.359411 0
-0.143376 +0.326124 0
-0.125845 +0.286226 0
-0.105837 +0.240691 0
-0.083840 +0.190634 0
-0.060392 +0.137275 0
-0.036063 +0.081912 0
-0.011443 +0.025888 0
+0.012874 -0.029445 0
+0.036304 -0.082758 0
+0.058289 -0.132781 0
+0.078310 -0.178334 0
+0.095900 -0.218356 0
+0.110657 -0.251930 0
+0.122254 -0.278310 0
-0.179702 +0.408810 0
-0.173731 +0.395214 0
-0.164111 +0.373315 0
-0.151077 +0.343651 0
-0.134950 +0.306946 0
-0.116122 +0.264098 0
-0.095055 +0.216155 0
-0.072263 +0.164289 0
-0.048301 +0.109761 0
-0.023752 +0.053898 0
+0.000791 -0.001950 0
+0.024736 -0.056436 0
+0.047512 -0.108259 0
+0.068576 -0.156188 0
+0.087436 -0.199100 0
+0.103656 -0.236002 0
+0.116869 -0.266061 0
+0.126787 -0.288621 0
+0.144022 -0.327831 0
+0.157185 -0.357778 0
+0.169727 -0.386310 0
+0.181445 -0.412964 0
+0.192140 -0.437288 0
+0.201624 -0.458856 0
+0.209724 -0.477271 0
+0.216283 -0.492180 0
+0.221167 -0.503276 0
+0.224265 -0.510309 0
+0.225494 -0.513091 0
+0.224802 -0.511500 0
+0.222165 -0.505485 0
+0.217593 -0.495069 0
+0.211128 -0.480347 0
+0.202845 -0.461488 0
+0.192848 -0.438732 0
+0.137270 -0.312469 0
+0.150667 -0.342949 0
+0.163545 -0.372248 0
+0.175701 -0.399898 0
+0.186932 -0.425443 0
+0.197044 -0.448441 0
+0.205857 -0.468480 0
+0.213205 -0.485183 0
+0.218941 -0.498221 0
+0.222944 -0.507313 0
+0.225117 -0.512240 0
+0.225390 -0.512846 0
+0.223726 -0.509045 0
+0.220119 -0.500822 0
+0.214593 -0.488235 0
+0.207207 -0.471419 0
+0.198051 -0.450577 0
+0.187245 -0.425982 0
+0.177183 -0.403074 0
+0.169363 -0.385272 0
+0.158002 -0.359411 0
+0.143376 -0.326124 0
+0.125845 -0.286226 0
+0.105837 -0.240691 0
+0.083840 -0.190634 0
+0.060392 -0.137275 0
+0.036063 -0.081912 0
+0.011443 -0.025888 0
-0.012874 +0.029444 0
-0.036304 +0.082758 0
-0.058289 +0.132781 0
-0.078310 +0.178334 0
-0.095900 +0.218355 0
-0.110657 +0.251930 0
-0.122254 +0.278310 0
+0.179702 -0.408810 0
+0.173731 -0.395214 0
+0.164111 -0.373315 0
+0.151077 -0.343651 0
+0.134950 -0.306946 0
+0.116122 -0.264098 0
+0.095055 -0.216155 0
+0.072263 -0.164289 0
+0.048301 -0.109761 0
+0.023752 -0.053898 0
-0.000791 +0.001950 0
-0.024736 +0.056436 0
-0.047512 +0.108259 0
-0.068576 +0.156188 0
-0.087436 +0.199100 0
-0.103656 +0.236002 0
-0.116869 +0.266061 0
-0.126787 +0.288621 0
-0.144022 +0.327831 0
-0.157185 +0.357778 0
-0.169727 +0.386310 0
-0.181445 +0.412964 0
-0.192140 +0.437288 0
-0.201624 +0.458856 0
-0.209724 +0.477271 0
-0.216283 +0.492180 0
-0.221167 +0.503276 0
-0.224265 +0.510309 0
-0.225494 +0.513091 0
-0.224802 +0.511500 0
-0.222165 +0.505485 0
-0.217593 +0.495069 0
-0.211128 +0.480347 0
-0.202845 +0.461488 0
-0.192848 +0.438732 0
-0.137270 +0.312469 0
-0.150667 +0.342949 0
-0.163545 +0.372248 0
-0.175701 +0.399898 0
-0.186932 +0.425443 0
-0.197044 +0.448441 0
-0.205857 +0.468480 0
-0.213205 +0.485184 0
-0.218941 +0.498221 0
-0.222944 +0.507313 0
-0.225117 +0.512240 0
-0.225390 +0.512846 0
-0.223726 +0.509045 0
-0.220119 +0.500822 0
-0.214593 +0.488235 0
-0.207207 +0.471419 0
-0.198051 +0.450577 0
-0.187245 +0.425982 0
+0.000000 +0.000000 0
+0.000000 +0.000000 0
+0.000000 +0.000000 0
+0.000000 +0.000000 0
+0.000000 +0.000000 0
+0.000000 +0.000000 0
+0.000000 +0.000000 0
+0.000000 +0.000000 0
+0.000000 +0.000000 0
+0.000000 +0.000000 0
+0.000000 +0.000000 0
+0.000000 +0.000000 0
+0.000000 +0.000000 0
+0.000000 +0.000000 0
+0.000000 +0.000000 0
+0.000000 +0.000000 0
+0.000000 +0.000000 0
+0.000000 +0.000000 0
+0.000000 +0.000000 0
+0.000000 +0.000000 0
+0.000000 +0.000000 0
+0.000000 +0.000000 0
+0.000000 +0.000000 0
+0.000000 +0.000000 0
+0.000000 +0.000000 0
+0.000000 +0.000000 0
+0.000000 +0.000000 0
+0.000000 +0.000000 0
+0.000000 +0.000000 0
+0.000000 +0.000000 0
+0.000000 +0.000000 0
+0.000000 +0.000000 0
+0.000000 +0.000000 0
+0.000000 +0.000000 0
+0.000000 +0.000000 0
+0.000000 +0.000000 0
+0.000000 +0.000000 0
+0.000000 +0.000000 0
+0.000000 +0.000000 0
+0.000000 +0.000000 0
+0.000000 +0.000000 0
+0.000000 +0.000000 0
+0.000000 +0.000000 0
+0.000000 +0.000000 0
+0.000000 +0.000000 0
+0.000000 +0.000000 0
+0.000000 +0.000000 0
+0.000000 +0.000000 0
+0.000000 +0.000000 0
+0.000000 +0.000000 0
+0.000000 +0.000000 0
+0.000000 +0.000000 0
+0.000000 +0.000000 0
+0.000000 +0.000000 0
+0.000000 +0.000000 0
+0.000000 +0.000000 0
+0.000000 +0.000000 0
+0.000000 +0.000000 0
+0.000000 +0.000000 0
+0.000000 +0.000000 0
+0.000000 +0.000000 0
+0.000000 +0.000000 0
+0.000000 +0.000000 0
+0.000000 +0.000000 0
+0.000000 +0.000000 0
+0.000000 +0.000000 0
+0.000000 +0.000000 0
+0.000000 +0.000000 0
+0.000000 +0.000000 0
+0.000000 +0.000000 0
+0.000000 +0.000000 0
+0.000000 +0.000000 0
+0.000000 +0.000000 0
+0.000000 +0.000000 0
+0.000000 +0.000000 0
+0.000000 +0.000000 0
+0.000000 +0.000000 0
+0.000000 +0.000000 0
+0.000000 +0.000000 0
+0.000000 +0.000000 0
+0.000000 +0.000000 0
+0.000000 +0.000000 0
+0.000000 +0.000000 0
+0.000000 +0.000000 0
+0.000000 +0.000000 0
+0.000000 +0.000000 0
+0.000000 +0.000000 0
+0.000000 +0.000000 0
+0.000000 +0.000000 0
+0.000000 +0.000000 0
+0.000000 +0.000000 0
+0.000000 +0.000000 0
+0.000000 +0.000000 0
+0.000000 +0.000000 0
+0.000000 +0.000000 0
+0.000000 +0.000000 0
+0.000000 +0.000000 0
+0.000000 +0.000000 0
+0.000000 +0.000000 0
+0.000000 +0.000000 0
+0.000000 +0.000000 0
+0.000000 +0.000000 0
+0.000000 +0.000000 0
+0.000000 +0.000000 0
+0.000000 +0.000000 0
+0.000000 +0.000000 0
+0.000000 +0.000000 0
+0.000000 +0.000000 0
+0.000000 +0.000000 0
+0.000000 +0.000000 0
+0.000000 +0.000000 0
+0.000000 +0.000000 0
+0.000000 +0.000000 0
+0.000000 +0.000000 0
+0.000000 +0.000000 0
+0.000000 +0.000000 0
+0.000000 +0.000000 0
+0.000000 +0.000000 0
+0.000000 +0.000000 0
+0.000000 +0.000000 0
+0.000000 +0.000000 0
+0.000000 +0.000000 0
+0.000000 +0.000000 0
+0.000000 +0.000000 0
+0.000000 +0.000000 0
+0.000000 +0.000000 0
+0.000000 +0.000000 0
+0.000000 +0.000000 0
+0.000000 +0.000000 0
+0.000000 +0.000000 0
+0.000000 +0.000000 0
+0.000000 +0.000000 0
+0.000000 +0.000000 0
+0.000000 +0.000000 0
+0.000000 +0.000000 0
+0.000000 +0.000000 0
+0.000000 +0.000000 0
+0.000000 +0.000000 0
+0.000000 +0.000000 0
+0.000000 +0.000000 0
-0.169927 +0.386578 0
-0.153760 +0.349799 0
-0.133427 +0.303543 0
-0.109722 +0.249613 0
-0.083542 +0.190056 0
-0.055859 +0.127077 0
-0.027678 +0.062967 0
-0.176238 +0.400936 0
-0.162411 +0.369479 0
-0.144069 +0.327753 0
-0.121944 +0.277417 0
-0.096883 +0.220406 0
-0.069827 +0.158855 0
-0.041769 +0.095023 0
-0.013713 +0.031196 0
+0.122280 -0.278355 0
+0.110646 -0.251872 0
+0.096015 -0.218565 0
+0.078956 -0.179733 0
+0.060117 -0.136849 0
+0.040196 -0.091502 0
+0.019917 -0.045339 0
+0.126822 -0.288693 0
+0.116871 -0.266042 0
+0.103673 -0.235998 0
+0.087751 -0.199754 0
+0.069718 -0.158703 0
+0.050248 -0.114383 0
+0.030057 -0.068421 0
+0.009868 -0.022463 0
+0.169927 -0.386578 0
+0.153760 -0.349799 0
+0.133427 -0.303543 0
+0.109722 -0.249613 0
+0.083542 -0.190056 0
+0.055859 -0.127077 0
+0.027678 -0.062967 0
+0.176238 -0.400936 0
+0.162411 -0.369479 0
+0.144069 -0.327753 0
+0.121943 -0.277417 0
+0.096883 -0.220406 0
+0.069827 -0.158855 0
+0.041769 -0.095023 0
+0.013713 -0.031196 0
-0.122280 +0.278355 0
-0.110646 +0.251872 0
-0.096015 +0.218565 0
-0.078956 +0.179733 0
-0.060117 +0.136849 0
-0.040196 +0.091502 0
-0.019917 +0.045339 0
-0.126822 +0.288693 0
-0.116871 +0.266042 0
-0.103673 +0.235998 0
-0.087751 +0.199754 0
-0.069717 +0.158703 0
-0.050248 +0.114383 0
-0.030057 +0.068421 0
-0.009868 +0.022463 0
-0.149028 +0.339010 0
-0.130042 +0.295786 0
-0.098831 +0.224750 0
-0.058581 +0.133152 0
-0.013922 +0.031529 0
+0.029884 -0.068147 0
+0.067723 -0.154237 0
+0.095613 -0.217684 0
-0.109870 +0.249930 0
-0.097553 +0.221885 0
-0.075302 +0.171240 0
-0.045244 +0.102835 0
-0.012145 +0.027515 0
+0.020751 -0.047334 0
+0.049108 -0.111850 0
+0.069581 -0.158421 0
-0.058223 +0.132444 0
-0.052005 +0.118285 0
-0.040375 +0.091812 0
-0.024518 +0.055726 0
-0.006974 +0.015803 0
+0.010282 -0.023460 0
+0.025536 -0.058163 0
+0.036556 -0.083231 0
-0.153325 +0.348798 0
-0.161886 +0.368260 0
-0.167827 +0.381790 0
-0.141239 +0.321274 0
-0.139395 +0.317064 0
-0.152355 +0.346563 0
-0.115829 +0.263437 0
-0.104608 +0.237893 0
-0.123364 +0.280577 0
-0.079583 +0.180947 0
-0.060995 +0.138641 0
-0.083638 +0.190168 0
-0.036485 +0.082870 0
-0.013219 +0.029925 0
-0.037307 +0.084738 0
+0.008424 -0.019319 0
+0.033511 -0.076406 0
+0.010604 -0.024282 0
+0.049848 -0.113571 0
+0.074182 -0.168943 0
+0.054877 -0.125018 0
+0.083058 -0.189125 0
+0.104698 -0.238365 0
+0.090907 -0.206992 0
+0.104875 -0.238750 0
+0.115258 -0.262387 0
-0.111507 +0.253666 0
-0.131295 +0.298668 0
-0.134282 +0.305477 0
-0.104899 +0.238610 0
-0.115724 +0.263217 0
-0.125145 +0.284665 0
-0.087414 +0.198807 0
-0.088787 +0.201906 0
-0.103610 +0.235643 0
-0.061043 +0.138787 0
-0.053258 +0.121051 0
-0.071884 +0.163437 0
-0.028809 +0.065436 0
-0.013550 +0.030695 0
-0.033640 +0.076408 0
+0.004601 -0.010588 0
+0.025573 -0.058325 0
+0.006403 -0.014707 0
+0.035815 -0.081608 0
+0.059186 -0.134800 0
+0.043331 -0.098728 0
+0.060428 -0.137601 0
+0.083694 -0.190551 0
+0.072863 -0.165913 0
+0.075871 -0.172723 0
+0.091651 -0.208646 0
-0.058668 +0.133462 0
-0.085296 +0.194029 0
-0.086228 +0.196159 0
-0.056135 +0.127687 0
-0.076097 +0.173083 0
-0.081970 +0.186453 0
-0.046949 +0.106774 0
-0.058956 +0.134067 0
-0.068545 +0.155892 0
-0.032752 +0.074463 0
-0.035743 +0.081240 0
-0.047974 +0.109074 0
-0.015805 +0.035899 0
-0.009958 +0.022564 0
-0.023017 +0.052280 0
+0.001763 -0.004077 0
+0.015650 -0.035704 0
+0.003059 -0.007055 0
+0.018387 -0.041901 0
+0.037793 -0.086080 0
+0.027363 -0.062352 0
+0.031787 -0.072385 0
+0.053766 -0.122415 0
+0.046802 -0.106575 0
+0.039757 -0.090508 0
+0.058537 -0.133263 0
-0.029805 +0.067799 0
-0.029904 +0.068028 0
-0.026578 +0.060450 0
-0.028669 +0.065212 0
-0.020451 +0.046504 0
-0.023773 +0.054066 0
-0.012558 +0.028542 0
-0.016752 +0.038086 0
-0.003690 +0.008363 0
-0.008131 +0.018468 0
+0.005098 -0.011633 0
+0.000770 -0.001785 0
+0.012965 -0.029532 0
+0.009188 -0.020938 0
+0.018549 -0.042233 0
+0.016047 -0.036541 0
+0.020130 -0.045828 0
-0.169372 +0.385310 0
-0.173176 +0.393957 0
-0.154056 +0.350467 0
-0.161181 +0.366669 0
-0.151673 +0.345032 0
-0.156095 +0.355085 0
-0.165334 +0.376111 0
-0.166322 +0.378353 0
-0.157577 +0.358450 0
-0.155881 +0.354585 0
-0.145611 +0.331229 0
-0.147449 +0.335402 0
-0.136081 +0.309533 0
-0.135364 +0.307894 0
-0.146293 +0.332764 0
-0.142075 +0.323162 0
-0.131755 +0.299675 0
-0.125249 +0.284867 0
-0.123338 +0.280528 0
-0.120208 +0.273397 0
-0.107669 +0.244865 0
-0.102273 +0.232580 0
-0.114300 +0.259949 0
-0.105802 +0.240608 0
-0.094373 +0.214599 0
-0.084226 +0.191508 0
-0.089482 +0.203474 0
-0.082081 +0.186628 0
-0.069272 +0.157482 0
-0.060159 +0.136741 0
-0.072487 +0.164793 0
-0.061074 +0.138822 0
-0.049244 +0.111900 0
-0.036944 +0.083912 0
-0.047643 +0.108261 0
-0.037153 +0.084387 0
-0.025220 +0.057237 0
-0.013707 +0.031036 0
-0.025269 +0.057345 0
-0.012464 +0.028207 0
-0.001233 +0.002651 0
+0.011732 -0.026848 0
-0.002683 +0.005954 0
+0.009498 -0.021764 0
+0.019316 -0.044101 0
+0.031793 -0.072495 0
+0.022216 -0.050706 0
+0.035018 -0.079834 0
+0.044429 -0.101247 0
+0.056800 -0.129394 0
+0.040101 -0.091394 0
+0.052554 -0.119731 0
+0.059096 -0.134611 0
+0.071228 -0.162217 0
+0.064824 -0.147652 0
+0.076548 -0.174327 0
+0.082902 -0.188780 0
+0.093774 -0.213518 0
+0.075761 -0.172524 0
+0.087320 -0.198827 0
+0.089741 -0.204328 0
+0.100527 -0.228872 0
+0.098203 -0.223591 0
+0.108095 -0.246097 0
+0.110412 -0.251364 0
+0.119199 -0.271358 0
+0.100695 -0.229245 0
+0.110464 -0.251473 0
+0.108240 -0.246401 0
+0.119232 -0.271423 0
-0.134385 +0.305715 0
-0.144320 +0.328311 0
-0.111158 +0.252876 0
-0.123302 +0.280497 0
-0.111215 +0.252995 0
-0.121012 +0.275277 0
-0.133297 +0.303229 0
-0.140715 +0.320099 0
-0.128713 +0.292789 0
-0.133763 +0.304269 0
-0.107874 +0.245384 0
-0.115480 +0.262680 0
-0.101697 +0.231319 0
-0.107086 +0.243569 0
-0.120888 +0.274972 0
-0.123455 +0.280803 0
-0.110088 +0.250388 0
-0.110264 +0.250779 0
-0.092895 +0.211283 0
-0.095955 +0.218232 0
-0.081729 +0.185868 0
-0.082441 +0.187473 0
-0.096552 +0.219578 0
-0.094307 +0.214460 0
-0.080626 +0.183334 0
-0.076161 +0.173165 0
-0.068454 +0.155653 0
-0.066816 +0.151915 0
-0.053320 +0.121214 0
-0.049549 +0.112620 0
-0.062770 +0.142698 0
-0.056262 +0.127880 0
-0.043572 +0.099008 0
-0.035304 +0.080188 0
-0.037144 +0.084401 0
-0.031442 +0.071416 0
-0.020561 +0.046665 0
-0.012965 +0.029372 0
-0.023630 +0.053629 0
-0.013868 +0.031411 0
-0.003528 +0.007888 0
+0.007389 -0.016959 0
-0.003757 +0.008428 0
+0.005472 -0.012580 0
+0.012809 -0.029265 0
+0.023213 -0.052947 0
+0.016141 -0.036865 0
+0.027803 -0.063407 0
+0.034687 -0.079063 0
+0.046754 -0.106524 0
+0.028483 -0.064926 0
+0.039690 -0.090435 0
+0.042759 -0.097405 0
+0.054323 -0.123725 0
+0.051564 -0.117459 0
+0.063690 -0.145054 0
+0.066375 -0.151155 0
+0.078239 -0.178152 0
+0.055120 -0.125526 0
+0.066871 -0.152270 0
+0.065398 -0.148905 0
+0.076884 -0.175047 0
+0.078696 -0.179182 0
+0.089973 -0.204844 0
+0.088122 -0.200621 0
+0.098595 -0.224454 0
+0.073176 -0.166596 0
+0.084025 -0.191285 0
+0.077906 -0.177348 0
+0.094326 -0.214729 0
-0.085442 +0.194374 0
-0.099146 +0.225546 0
-0.057815 +0.131524 0
-0.072601 +0.165158 0
-0.058955 +0.134113 0
-0.071932 +0.163629 0
-0.086286 +0.196285 0
-0.097890 +0.222679 0
-0.084132 +0.191376 0
-0.093748 +0.213244 0
-0.057662 +0.131163 0
-0.069237 +0.157490 0
-0.054499 +0.123962 0
-0.064239 +0.146112 0
-0.079484 +0.180794 0
-0.087151 +0.198224 0
-0.072740 +0.165440 0
-0.078285 +0.178044 0
-0.049876 +0.113438 0
-0.057931 +0.131752 0
-0.043993 +0.100047 0
-0.049837 +0.113329 0
-0.064100 +0.145773 0
-0.067420 +0.153315 0
-0.053752 +0.122223 0
-0.054757 +0.124496 0
-0.036826 +0.083736 0
-0.040519 +0.092122 0
-0.028836 +0.065551 0
-0.030257 +0.068770 0
-0.042054 +0.095601 0
-0.040687 +0.092477 0
-0.029517 +0.067071 0
-0.026052 +0.059174 0
-0.020285 +0.046093 0
-0.019510 +0.044315 0
-0.011444 +0.025975 0
-0.008534 +0.019338 0
-0.016545 +0.037552 0
-0.011143 +0.025248 0
-0.003438 +0.007729 0
+0.003796 -0.008746 0
-0.002603 +0.005858 0
+0.002376 -0.005487 0
+0.006089 -0.013920 0
+0.012964 -0.029578 0
+0.009458 -0.021616 0
+0.018224 -0.041572 0
+0.021691 -0.049449 0
+0.031665 -0.072153 0
+0.014466 -0.032979 0
+0.022901 -0.052186 0
+0.022186 -0.050543 0
+0.031715 -0.072238 0
+0.032838 -0.074808 0
+0.043567 -0.099230 0
+0.042609 -0.097035 0
+0.053759 -0.122415 0
+0.028935 -0.065897 0
+0.039367 -0.089644 0
+0.034515 -0.078588 0
+0.045247 -0.103017 0
+0.050665 -0.115361 0
+0.061842 -0.140801 0
+0.056580 -0.128814 0
+0.067381 -0.153396 0
+0.038550 -0.087766 0
+0.049239 -0.112095 0
+0.040441 -0.092063 0
+0.059818 -0.136172 0
-0.029315 +0.066690 0
-0.044297 +0.100769 0
-0.014791 +0.033648 0
-0.014727 +0.033499 0
-0.030333 +0.069003 0
-0.044031 +0.100160 0
-0.029679 +0.067512 0
-0.042424 +0.096499 0
-0.014152 +0.032191 0
-0.013110 +0.029819 0
-0.028022 +0.063737 0
-0.039314 +0.089420 0
-0.025527 +0.058057 0
-0.035388 +0.080482 0
-0.011721 +0.026656 0
-0.010081 +0.022924 0
-0.022415 +0.050976 0
-0.030441 +0.069223 0
-0.018856 +0.042875 0
-0.024781 +0.056340 0
-0.008260 +0.018779 0
-0.006199 +0.014088 0
-0.014843 +0.033741 0
-0.018568 +0.042203 0
-0.010468 +0.023786 0
-0.012001 +0.027257 0
-0.004024 +0.009140 0
-0.001843 +0.004177 0
-0.005984 +0.013583 0
-0.005366 +0.012160 0
-0.001470 +0.003312 0
+0.001232 -0.002852 0
+0.000349 -0.000811 0
+0.002479 -0.005658 0
+0.002992 -0.006841 0
+0.007656 -0.017470 0
+0.007258 -0.016548 0
+0.013758 -0.031352 0
+0.004497 -0.010248 0
+0.006365 -0.014499 0
+0.011246 -0.025621 0
+0.019227 -0.043793 0
+0.014747 -0.033585 0
+0.023900 -0.054425 0
+0.007897 -0.017983 0
+0.009148 -0.020827 0
+0.017586 -0.040043 0
+0.027543 -0.062710 0
+0.019682 -0.044811 0
+0.029940 -0.068159 0
+0.009947 -0.022646 0
+0.020435 -0.046519 0
+0.143909 -0.327556 0
+0.175018 -0.398330 0
+0.200996 -0.457421 0
+0.218735 -0.497757 0
+0.226014 -0.514290 0
+0.221909 -0.504921 0
+0.207192 -0.471408 0
+0.183727 -0.417996 0
+0.108784 -0.247604 0
+0.136321 -0.310257 0
+0.159207 -0.362317 0
+0.173633 -0.395121 0
+0.179755 -0.409030 0
+0.174957 -0.398091 0
+0.160288 -0.364693 0
+0.138035 -0.314044 0
+0.058818 -0.133875 0
+0.074764 -0.170156 0
+0.086914 -0.197794 0
+0.095660 -0.217685 0
+0.098496 -0.224127 0
+0.095089 -0.216362 0
+0.087375 -0.198800 0
+0.074260 -0.168951 0
+0.127370 -0.289925 0
+0.153542 -0.349485 0
+0.138048 -0.314231 0
+0.159803 -0.363717 0
+0.182557 -0.415491 0
+0.168486 -0.383481 0
+0.188761 -0.429592 0
+0.206773 -0.470570 0
+0.195437 -0.444788 0
+0.210985 -0.480137 0
+0.223689 -0.509033 0
+0.216278 -0.492184 0
+0.223795 -0.509257 0
+0.231478 -0.526724 0
+0.228799 -0.520644 0
+0.225433 -0.512955 0
+0.229296 -0.521727 0
+0.231644 -0.527086 0
+0.215860 -0.491143 0
+0.217395 -0.494622 0
+0.224509 -0.510822 0
+0.196510 -0.447091 0
+0.197024 -0.448248 0
+0.208178 -0.473637 0
+0.169509 -0.385638 0
+0.184217 -0.419099 0
+0.094123 -0.214247 0
+0.128700 -0.292938 0
+0.112526 -0.256137 0
+0.123084 -0.280142 0
+0.159258 -0.362461 0
+0.144502 -0.328890 0
+0.148720 -0.338462 0
+0.184745 -0.420436 0
+0.172958 -0.393625 0
+0.167972 -0.382252 0
+0.201801 -0.459223 0
+0.194592 -0.442831 0
+0.177787 -0.404563 0
+0.208335 -0.474064 0
+0.206532 -0.469973 0
+0.179125 -0.407585 0
+0.203442 -0.462903 0
+0.207396 -0.471913 0
+0.169102 -0.384758 0
+0.187964 -0.427661 0
+0.196694 -0.447536 0
+0.150085 -0.341469 0
+0.163840 -0.372752 0
+0.176798 -0.402246 0
+0.124721 -0.283746 0
+0.149406 -0.339903 0
+0.050000 -0.113812 0
+0.085400 -0.194379 0
+0.073153 -0.166513 0
+0.067282 -0.153135 0
+0.108055 -0.245924 0
+0.097285 -0.221421 0
+0.081945 -0.186493 0
+0.126509 -0.287903 0
+0.118177 -0.268950 0
+0.092545 -0.210603 0
+0.138379 -0.314897 0
+0.133631 -0.304101 0
+0.098219 -0.223502 0
+0.142664 -0.324631 0
+0.141777 -0.322622 0
+0.098171 -0.223382 0
+0.138615 -0.315400 0
+0.141974 -0.323051 0
+0.092591 -0.210673 0
+0.126604 -0.288055 0
+0.133748 -0.304317 0
+0.081715 -0.185918 0
+0.108135 -0.246019 0
+0.118312 -0.269180 0
+0.066146 -0.150485 0
+0.096788 -0.220198 0
+0.030437 -0.069276 0
+0.025677 -0.058446 0
+0.038777 -0.088253 0
+0.034878 -0.079382 0
+0.045041 -0.102502 0
+0.042140 -0.095903 0
+0.049311 -0.112213 0
+0.047590 -0.108300 0
+0.050748 -0.115478 0
+0.050120 -0.114050 0
+0.049208 -0.111967 0
+0.050431 -0.114751 0
+0.045147 -0.102722 0
+0.047516 -0.108113 0
+0.038201 -0.086912 0
+0.041937 -0.095415 0
+0.033805 -0.076908 0
+0.130181 -0.296331 0
+0.141645 -0.322421 0
+0.119024 -0.270936 0
+0.133265 -0.303343 0
+0.135708 -0.308896 0
+0.149442 -0.340151 0
+0.145850 -0.331984 0
+0.156141 -0.355402 0
+0.161109 -0.366700 0
+0.170055 -0.387054 0
+0.151979 -0.345917 0
+0.165042 -0.375642 0
+0.167585 -0.381420 0
+0.179833 -0.409290 0
+0.175658 -0.399797 0
+0.183116 -0.416765 0
+0.189173 -0.430541 0
+0.195046 -0.443900 0
+0.182117 -0.414479 0
+0.193320 -0.439968 0
+0.195153 -0.444132 0
+0.205216 -0.467025 0
+0.201318 -0.458165 0
+0.205588 -0.467875 0
+0.211772 -0.481938 0
+0.214485 -0.488105 0
+0.206309 -0.469505 0
+0.215095 -0.489492 0
+0.215212 -0.489749 0
+0.222731 -0.506851 0
+0.220258 -0.501232 0
+0.221544 -0.504151 0
+0.226539 -0.515509 0
+0.226564 -0.515558 0
+0.221642 -0.504367 0
+0.227862 -0.518511 0
+0.225297 -0.512668 0
+0.230312 -0.524072 0
+0.230447 -0.524387 0
+0.229460 -0.522132 0
+0.231875 -0.527619 0
+0.230121 -0.523620 0
+0.226119 -0.514523 0
+0.230063 -0.523489 0
+0.224061 -0.509825 0
+0.227064 -0.516650 0
+0.230783 -0.525119 0
+0.228542 -0.520011 0
+0.227204 -0.516961 0
+0.224727 -0.511316 0
+0.219253 -0.498871 0
+0.221528 -0.504039 0
+0.211869 -0.482056 0
+0.213509 -0.485779 0
+0.221239 -0.503373 0
+0.218763 -0.497732 0
+0.213048 -0.484724 0
+0.210769 -0.479530 0
+0.202156 -0.459945 0