# vtk DataFile Version 2.0
MyTitle
ASCII
DATASET UNSTRUCTURED_GRID
POINTS 2773 double
0.800000 -0.800000 0.000000
0.800000 0.800000 0.000000
-0.800000 0.800000 0.000000
-0.800000 -0.800000 0.000000
1.414214 -1.414214 0.000000
1.414214 1.414214 0.000000
-1.414214 1.414214 0.000000
-1.414214 -1.414214 0.000000
0.800000 -0.711111 0.000000
0.800000 -0.622222 0.000000
0.800000 -0.533333 0.000000
0.800000 -0.444444 0.000000
0.800000 -0.355556 0.000000
0.800000 -0.266667 0.000000
0.800000 -0.177778 0.000000
0.800000 -0.088889 0.000000
0.800000 -0.000000 0.000000
0.800000 0.088889 0.000000
0.800000 0.177778 0.000000
0.800000 0.266667 0.000000
0.800000 0.355556 0.000000
0.800000 0.444444 0.000000
0.800000 0.533333 0.000000
0.800000 0.622222 0.000000
0.800000 0.711111 0.000000
0.800000 -0.755556 0.000000
0.800000 -0.666667 0.000000
0.800000 -0.577778 0.000000
0.800000 -0.488889 0.000000
0.800000 -0.400000 0.000000
0.800000 -0.311111 0.000000
0.800000 -0.222222 0.000000
0.800000 -0.133333 0.000000
0.800000 -0.044444 0.000000
0.800000 0.044444 0.000000
0.800000 0.133333 0.000000
0.800000 0.222222 0.000000
0.800000 0.311111 0.000000
0.800000 0.400000 0.000000
0.800000 0.488889 0.000000
0.800000 0.577778 0.000000
0.800000 0.666667 0.000000
0.800000 0.755556 0.000000
0.711111 0.800000 0.000000
0.622222 0.800000 0.000000
0.533333 0.800000 0.000000
0.444444 0.800000 0.000000
0.355556 0.800000 0.000000
0.266667 0.800000 0.000000
0.177778 0.800000 0.000000
0.088889 0.800000 0.000000
0.000000 0.800000 0.000000
-0.088889 0.800000 0.000000
-0.177778 0.800000 0.000000
-0.266667 0.800000 0.000000
-0.355556 0.800000 0.000000
-0.444444 0.800000 0.000000
-0.533333 0.800000 0.000000
-0.622222 0.800000 0.000000
-0.711111 0.800000 0.000000
0.755556 0.800000 0.000000
0.666667 0.800000 0.000000
0.577778 0.800000 0.000000
0.488889 0.800000 0.000000
0.400000 0.800000 0.000000
0.311111 0.800000 0.000000
0.222222 0.800000 0.000000
0.133333 0.800000 0.000000
0.044444 0.800000 0.000000
-0.044444 0.800000 0.000000
-0.133333 0.800000 0.000000
-0.222222 0.800000 0.000000
-0.311111 0.800000 0.000000
-0.400000 0.800000 0.000000
-0.488889 0.800000 0.000000
-0.577778 0.800000 0.000000
-0.666667 0.800000 0.000000
-0.755556 0.800000 0.000000
-0.800000 0.711111 0.000000
-0.800000 0.622222 0.000000
-0.800000 0.533333 0.000000
-0.800000 0.444444 0.000000
-0.800000 0.355556 0.000000
-0.800000 0.266667 0.000000
-0.800000 0.177778 0.000000
-0.800000 0.088889 0.000000
-0.800000 0.000000 0.000000
-0.800000 -0.088889 0.000000
-0.800000 -0.177778 0.000000
-0.800000 -0.266667 0.000000
-0.800000 -0.355556 0.000000
-0.800000 -0.444444 0.000000
-0.800000 -0.533333 0.000000
-0.800000 -0.622222 0.000000
-0.800000 -0.711111 0.000000
-0.800000 0.755556 0.000000
-0.800000 0.666667 0.000000
-0.800000 0.577778 0.000000
-0.800000 0.488889 0.000000
-0.800000 0.400000 0.000000
-0.800000 0.311111 0.000000
-0.800000 0.222222 0.000000
-0.800000 0.133333 0.000000
-0.800000 0.044444 0.000000
-0.800000 -0.044444 0.000000
-0.800000 -0.133333 0.000000
-0.800000 -0.222222 0.000000
-0.800000 -0.311111 0.000000
-0.800000 -0.400000 0.000000
-0.800000 -0.488889 0.000000
-0.800000 -0.577778 0.000000
-0.800000 -0.666667 0.000000
-0.800000 -0.755556 0.000000
-0.711111 -0.800000 0.000000
-0.622222 -0.800000 0.000000
-0.533333 -0.800000 0.000000
-0.444444 -0.800000 0.000000
-0.355556 -0.800000 0.000000
-0.266667 -0.800000 0.000000
-0.177778 -0.800000 0.000000
-0.088889 -0.800000 0.000000
-0.000000 -0.800000 0.000000
0.088889 -0.800000 0.000000
0.177778 -0.800000 0.000000
0.266667 -0.800000 0.000000
0.355556 -0.800000 0.000000
0.444444 -0.800000 0.000000
0.533333 -0.800000 0.000000
0.622222 -0.800000 0.000000
0.711111 -0.800000 0.000000
-0.755556 -0.800000 0.000000
-0.666667 -0.800000 0.000000
-0.577778 -0.800000 0.000000
-0.488889 -0.800000 0.000000
-0.400000 -0.800000 0.000000
-0.311111 -0.800000 0.000000
-0.222222 -0.800000 0.000000
-0.133333 -0.800000 0.000000
-0.044444 -0.800000 0.000000
0.044444 -0.800000 0.000000
0.133333 -0.800000 0.000000
0.222222 -0.800000 0.000000
0.311111 -0.800000 0.000000
0.400000 -0.800000 0.000000
0.488889 -0.800000 0.000000
0.577778 -0.800000 0.000000
0.666667 -0.800000 0.000000
0.755556 -0.800000 0.000000
1.532089 -1.285575 0.000000
1.638304 -1.147153 0.000000
1.732051 -1.000000 0.000000
1.812616 -0.845237 0.000000
1.879385 -0.684040 0.000000
1.931852 -0.517638 0.000000
1.969616 -0.347296 0.000000
1.992389 -0.174311 0.000000
2.000000 -0.000000 0.000000
1.992389 0.174311 0.000000
1.969616 0.347296 0.000000
1.931852 0.517638 0.000000
1.879385 0.684040 0.000000
1.812616 0.845237 0.000000
1.732051 1.000000 0.000000
1.638304 1.147153 0.000000
1.532089 1.285575 0.000000
1.474555 -1.351180 0.000000
1.586707 -1.217523 0.000000
1.686783 -1.074599 0.000000
1.774022 -0.923497 0.000000
1.847759 -0.765367 0.000000
1.907434 -0.601412 0.000000
1.952592 -0.432879 0.000000
1.982890 -0.261052 0.000000
1.998096 -0.087239 0.000000
1.998096 0.087239 0.000000
1.982890 0.261052 0.000000
1.952592 0.432879 0.000000
1.907434 0.601412 0.000000
1.847759 0.765367 0.000000
1.774022 0.923497 0.000000
1.686783 1.074599 0.000000
1.586707 1.217523 0.000000
1.474555 1.351180 0.000000
1.285575 1.532089 0.000000
1.147153 1.638304 0.000000
1.000000 1.732051 0.000000
0.845237 1.812616 0.000000
0.684040 1.879385 0.000000
0.517638 1.931852 0.000000
0.347296 1.969616 0.000000
0.174311 1.992389 0.000000
0.000000 2.000000 0.000000
-0.174311 1.992389 0.000000
-0.347296 1.969616 0.000000
-0.517638 1.931852 0.000000
-0.684040 1.879385 0.000000
-0.845237 1.812616 0.000000
-1.000000 1.732051 0.000000
-1.147153 1.638304 0.000000
-1.285575 1.532089 0.000000
1.351180 1.474555 0.000000
1.217523 1.586707 0.000000
1.074599 1.686783 0.000000
0.923497 1.774022 0.000000
0.765367 1.847759 0.000000
0.601412 1.907434 0.000000
0.432879 1.952592 0.000000
0.261052 1.982890 0.000000
0.087239 1.998096 0.000000
-0.087239 1.998096 0.000000
-0.261052 1.982890 0.000000
-0.432879 1.952592 0.000000
-0.601412 1.907434 0.000000
-0.765367 1.847759 0.000000
-0.923497 1.774022 0.000000
-1.074599 1.686783 0.000000
-1.217523 1.586707 0.000000
-1.351180 1.474555 0.000000
-1.532089 1.285575 0.000000
-1.638304 1.147153 0.000000
-1.732051 1.000000 0.000000
-1.812616 0.845237 0.000000
-1.879385 0.684040 0.000000
-1.931852 0.517638 0.000000
-1.969616 0.347296 0.000000
-1.992389 0.174311 0.000000
-2.000000 0.000000 0.000000
-1.992389 -0.174311 0.000000
-1.969616 -0.347296 0.000000
-1.931852 -0.517638 0.000000
-1.879385 -0.684040 0.000000
-1.812616 -0.845237 0.000000
-1.732051 -1.000000 0.000000
-1.638304 -1.147153 0.000000
-1.532089 -1.285575 0.000000
-1.474555 1.351180 0.000000
-1.586707 1.217523 0.000000
-1.686783 1.074599 0.000000
-1.774022 0.923497 0.000000
-1.847759 0.765367 0.000000
-1.907434 0.601412 0.000000
-1.952592 0.432879 0.000000
-1.982890 0.261052 0.000000
-1.998096 0.087239 0.000000
-1.998096 -0.087239 0.000000
-1.982890 -0.261052 0.000000
-1.952592 -0.432879 0.000000
-1.907434 -0.601412 0.000000
-1.847759 -0.765367 0.000000
-1.774022 -0.923497 0.000000
-1.686783 -1.074599 0.000000
-1.586707 -1.217523 0.000000
-1.474555 -1.351180 0.000000
-1.285575 -1.532089 0.000000
-1.147153 -1.638304 0.000000
-1.000000 -1.732051 0.000000
-0.845237 -1.812616 0.000000
-0.684040 -1.879385 0.000000
-0.517638 -1.931852 0.000000
-0.347296 -1.969616 0.000000
-0.174311 -1.992389 0.000000
-0.000000 -2.000000 0.000000
0.174311 -1.992389 0.000000
0.347296 -1.969616 0.000000
0.517638 -1.931852 0.000000
0.684040 -1.879385 0.000000
0.845237 -1.812616 0.000000
1.000000 -1.732051 0.000000
1.147153 -1.638304 0.000000
1.285575 -1.532089 0.000000
-1.351180 -1.474555 0.000000
-1.217523 -1.586707 0.000000
-1.074599 -1.686783 0.000000
-0.923497 -1.774022 0.000000
-0.765367 -1.847759 0.000000
-0.601412 -1.907434 0.000000
-0.432879 -1.952592 0.000000
-0.261052 -1.982890 0.000000
-0.087239 -1.998096 0.000000
0.087239 -1.998096 0.000000
0.261052 -1.982890 0.000000
0.432879 -1.952592 0.000000
0.601412 -1.907434 0.000000
0.765367 -1.847759 0.000000
0.923497 -1.774022 0.000000
1.074599 -1.686783 0.000000
1.217523 -1.586707 0.000000
1.351180 -1.474555 0.000000
0.876777 -0.876777 0.000000
0.953553 -0.953553 0.000000
1.030330 -1.030330 0.000000
1.107107 -1.107107 0.000000
1.183883 -1.183883 0.000000
1.260660 -1.260660 0.000000
1.337437 -1.337437 0.000000
0.838388 -0.838388 0.000000
0.915165 -0.915165 0.000000
0.991942 -0.991942 0.000000
1.068718 -1.068718 0.000000
1.145495 -1.145495 0.000000
1.222272 -1.222272 0.000000
1.299049 -1.299049 0.000000
1.375825 -1.375825 0.000000
0.876777 0.876777 0.000000
0.953553 0.953553 0.000000
1.030330 1.030330 0.000000
1.107107 1.107107 0.000000
1.183883 1.183883 0.000000
1.260660 1.260660 0.000000
1.337437 1.337437 0.000000
0.838388 0.838388 0.000000
0.915165 0.915165 0.000000
0.991942 0.991942 0.000000
1.068718 1.068718 0.000000
1.145495 1.145495 0.000000
1.222272 1.222272 0.000000
1.299049 1.299049 0.000000
1.375825 1.375825 0.000000
-0.876777 0.876777 0.000000
-0.953553 0.953553 0.000000
-1.030330 1.030330 0.000000
-1.107107 1.107107 0.000000
-1.183883 1.183883 0.000000
-1.260660 1.260660 0.000000
-1.337437 1.337437 0.000000
-0.838388 0.838388 0.000000
-0.915165 0.915165 0.000000
-0.991942 0.991942 0.000000
-1.068718 1.068718 0.000000
-1.145495 1.145495 0.000000
-1.222272 1.222272 0.000000
-1.299049 1.299049 0.000000
-1.375825 1.375825 0.000000
-0.876777 -0.876777 0.000000
-0.953553 -0.953553 0.000000
-1.030330 -1.030330 0.000000
-1.107107 -1.107107 0.000000
-1.183883 -1.183883 0.000000
-1.260660 -1.260660 0.000000
-1.337437 -1.337437 0.000000
-0.838388 -0.838388 0.000000
-0.915165 -0.915165 0.000000
-0.991942 -0.991942 0.000000
-1.068718 -1.068718 0.000000
-1.145495 -1.145495 0.000000
-1.222272 -1.222272 0.000000
-1.299049 -1.299049 0.000000
-1.375825 -1.375825 0.000000
1.004570 -0.750138 0.000000
1.046902 -0.541729 0.000000
1.076366 -0.327598 0.000000
1.091686 -0.109645 0.000000
1.091564 0.109637 0.000000
1.076182 0.327573 0.000000
[...]
POINT_DATA 2773
VECTORS sol double
+0.146631 -0.548551 0
-0.146631 +0.548551 0
+0.146631 -0.548551 0
-0.146631 +0.548551 0
+0.000000 +0.000000 0
+0.000000 +0.000000 0
+0.000000 +0.000000 0
+0.000000 +0.000000 0
+0.142696 -0.533832 0
+0.134961 -0.504896 0
+0.123561 -0.462248 0
+0.108753 -0.406851 0
+0.090909 -0.340094 0
+0.070503 -0.263753 0
+0.048095 -0.179927 0
+0.024317 -0.090971 0
-0.000156 +0.000584 0
-0.024624 +0.092120 0
-0.048387 +0.181017 0
-0.070769 +0.264748 0
-0.091141 +0.340962 0
-0.108944 +0.407566 0
-0.123707 +0.462792 0
-0.135058 +0.505258 0
-0.142744 +0.534010 0
+0.145143 -0.542986 0
+0.139299 -0.521125 0
+0.129708 -0.485241 0
+0.116564 -0.436071 0
+0.100185 -0.374795 0
+0.080994 -0.303002 0
+0.059512 -0.222637 0
+0.036337 -0.135938 0
+0.012124 -0.045356 0
-0.012435 +0.046520 0
-0.036637 +0.137061 0
-0.059792 +0.223683 0
-0.081244 +0.303936 0
-0.100397 +0.375590 0
-0.116733 +0.436702 0
-0.129829 +0.485695 0
-0.139371 +0.521395 0
-0.145166 +0.543073 0
-0.142696 +0.533832 0
-0.134961 +0.504896 0
-0.123561 +0.462248 0
-0.108753 +0.406851 0
-0.090909 +0.340094 0
-0.070503 +0.263754 0
-0.048096 +0.179927 0
-0.024317 +0.090972 0
+0.000156 -0.000584 0
+0.024624 -0.092120 0
+0.048387 -0.181017 0
+0.070768 -0.264748 0
+0.091141 -0.340962 0
+0.108944 -0.407566 0
+0.123707 -0.462792 0
+0.135058 -0.505258 0
+0.142744 -0.534010 0
-0.145143 +0.542986 0
-0.139299 +0.521125 0
-0.129708 +0.485242 0
-0.116564 +0.436071 0
-0.100185 +0.374795 0
-0.080994 +0.303002 0
-0.059512 +0.222637 0
-0.036337 +0.135938 0
-0.012124 +0.045356 0
+0.012435 -0.046519 0
+0.036637 -0.137061 0
+0.059792 -0.223683 0
+0.081244 -0.303937 0
+0.100397 -0.375589 0
+0.116733 -0.436703 0
+0.129829 -0.485695 0
+0.139371 -0.521395 0
+0.145166 -0.543073 0
+0.142696 -0.533832 0
+0.134961 -0.504896 0
+0.123561 -0.462248 0
+0.108753 -0.406851 0
+0.090909 -0.340095 0
+0.070503 -0.263753 0
+0.048095 -0.179927 0
+0.024317 -0.090971 0
-0.000156 +0.000584 0
-0.024624 +0.092120 0
-0.048387 +0.181017 0
-0.070768 +0.264748 0
-0.091141 +0.340962 0
-0.108944 +0.407566 0
-0.123707 +0.462792 0
-0.135058 +0.505258 0
-0.142744 +0.534010 0
+0.145143 -0.542986 0
+0.139299 -0.521125 0
+0.129708 -0.485241 0
+0.116564 -0.436071 0
+0.100185 -0.374795 0
+0.080994 -0.303002 0
+0.059512 -0.222637 0
+0.036337 -0.135938 0
+0.012124 -0.045356 0
-0.012435 +0.046520 0
-0.036637 +0.137061 0
-0.059792 +0.223683 0
-0.081244 +0.303937 0
-0.100397 +0.375589 0
-0.116733 +0.436702 0
-0.129829 +0.485695 0
-0.139371 +0.521395 0
-0.145166 +0.543073 0
-0.142696 +0.533832 0
-0.134961 +0.504896 0
-0.123561 +0.462248 0
-0.108753 +0.406851 0
-0.090909 +0.340094 0
-0.070503 +0.263753 0
-0.048095 +0.179927 0
-0.024317 +0.090971 0
+0.000156 -0.000584 0
+0.024624 -0.092120 0
+0.048387 -0.181017 0
+0.070768 -0.264748 0
+0.091141 -0.340962 0
+0.108944 -0.407566 0
+0.123707 -0.462792 0
+0.135058 -0.505258 0
+0.142744 -0.534010 0
-0.145143 +0.542986 0
-0.139299 +0.521125 0
-0.129708 +0.485241 0
-0.116564 +0.436071 0
-0.100185 +0.374795 0
-0.080994 +0.303002 0
-0.059512 +0.222637 0
-0.036337 +0.135938 0
-0.012124 +0.045356 0
+0.012435 -0.046520 0
+0.036637 -0.137061 0
+0.059792 -0.223683 0
+0.081244 -0.303937 0
+0.100397 -0.375589 0
+0.116733 -0.436703 0
+0.129829 -0.485695 0
+0.139371 -0.521395 0
+0.145166 -0.543073 0
+0.000000 +0.000000 0
+0.000000 +0.000000 0
+0.000000 +0.000000 0
+0.000000 +0.000000 0
+0.000000 +0.000000 0
+0.000000 +0.000000 0
+0.000000 +0.000000 0
+0.000000 +0.000000 0
+0.000000 +0.000000 0
+0.000000 +0.000000 0
+0.000000 +0.000000 0
+0.000000 +0.000000 0
+0.000000 +0.000000 0
+0.000000 +0.000000 0
+0.000000 +0.000000 0
+0.000000 +0.000000 0
+0.000000 +0.000000 0
+0.000000 +0.000000 0
+0.000000 +0.000000 0
+0.000000 +0.000000 0
+0.000000 +0.000000 0
+0.000000 +0.000000 0
+0.000000 +0.000000 0
+0.000000 +0.000000 0
+0.000000 +0.000000 0
+0.000000 +0.000000 0
+0.000000 +0.000000 0
+0.000000 +0.000000 0
+0.000000 +0.000000 0
+0.000000 +0.000000 0
+0.000000 +0.000000 0
+0.000000 +0.000000 0
+0.000000 +0.000000 0
+0.000000 +0.000000 0
+0.000000 +0.000000 0
+0.000000 +0.000000 0
+0.000000 +0.000000 0
+0.000000 +0.000000 0
+0.000000 +0.000000 0
+0.000000 +0.000000 0
+0.000000 +0.000000 0
+0.000000 +0.000000 0
+0.000000 +0.000000 0
+0.000000 +0.000000 0
+0.000000 +0.000000 0
+0.000000 +0.000000 0
+0.000000 +0.000000 0
+0.000000 +0.000000 0
+0.000000 +0.000000 0
+0.000000 +0.000000 0
+0.000000 +0.000000 0
+0.000000 +0.000000 0
+0.000000 +0.000000 0
+0.000000 +0.000000 0
+0.000000 +0.000000 0
+0.000000 +0.000000 0
+0.000000 +0.000000 0
+0.000000 +0.000000 0
+0.000000 +0.000000 0
+0.000000 +0.000000 0
+0.000000 +0.000000 0
+0.000000 +0.000000 0
+0.000000 +0.000000 0
+0.000000 +0.000000 0
+0.000000 +0.000000 0
+0.000000 +0.000000 0
+0.000000 +0.000000 0
+0.000000 +0.000000 0
+0.000000 +0.000000 0
+0.000000 +0.000000 0
+0.000000 +0.000000 0
+0.000000 +0.000000 0
+0.000000 +0.000000 0
+0.000000 +0.000000 0
+0.000000 +0.000000 0
+0.000000 +0.000000 0
+0.000000 +0.000000 0
+0.000000 +0.000000 0
+0.000000 +0.000000 0
+0.000000 +0.000000 0
+0.000000 +0.000000 0
+0.000000 +0.000000 0
+0.000000 +0.000000 0
+0.000000 +0.000000 0
+0.000000 +0.000000 0
+0.000000 +0.000000 0
+0.000000 +0.000000 0
+0.000000 +0.000000 0
+0.000000 +0.000000 0
+0.000000 +0.000000 0
+0.000000 +0.000000 0
+0.000000 +0.000000 0
+0.000000 +0.000000 0
+0.000000 +0.000000 0
+0.000000 +0.000000 0
+0.000000 +0.000000 0
+0.000000 +0.000000 0
+0.000000 +0.000000 0
+0.000000 +0.000000 0
+0.000000 +0.000000 0
+0.000000 +0.000000 0
+0.000000 +0.000000 0
+0.000000 +0.000000 0
+0.000000 +0.000000 0
+0.000000 +0.000000 0
+0.000000 +0.000000 0
+0.000000 +0.000000 0
+0.000000 +0.000000 0
+0.000000 +0.000000 0
+0.000000 +0.000000 0
+0.000000 +0.000000 0
+0.000000 +0.000000 0
+0.000000 +0.000000 0
+0.000000 +0.000000 0
+0.000000 +0.000000 0
+0.000000 +0.000000 0
+0.000000 +0.000000 0
+0.000000 +0.000000 0
+0.000000 +0.000000 0
+0.000000 +0.000000 0
+0.000000 +0.000000 0
+0.000000 +0.000000 0
+0.000000 +0.000000 0
+0.000000 +0.000000 0
+0.000000 +0.000000 0
+0.000000 +0.000000 0
+0.000000 +0.000000 0
+0.000000 +0.000000 0
+0.000000 +0.000000 0
+0.000000 +0.000000 0
+0.000000 +0.000000 0
+0.000000 +0.000000 0
+0.000000 +0.000000 0
+0.000000 +0.000000 0
+0.000000 +0.000000 0
+0.000000 +0.000000 0
+0.000000 +0.000000 0
+0.000000 +0.000000 0
+0.000000 +0.000000 0
+0.000000 +0.000000 0
+0.146844 -0.549349 0
+0.140453 -0.525442 0
+0.127605 -0.477375 0
+0.108891 -0.407368 0
+0.085317 -0.319175 0
+0.058226 -0.217825 0
+0.029210 -0.109275 0
+0.147552 -0.551999 0
+0.144477 -0.540493 0
+0.134812 -0.504336 0
+0.118930 -0.444924 0
+0.097638 -0.365269 0
+0.072119 -0.269801 0
+0.043855 -0.164064 0
+0.014519 -0.054315 0
-0.146844 +0.549349 0
-0.140453 +0.525442 0
-0.127605 +0.477375 0
-0.108892 +0.407368 0
-0.085317 +0.319175 0
-0.058226 +0.217825 0
-0.029210 +0.109275 0
-0.147552 +0.551999 0
-0.144477 +0.540493 0
-0.134812 +0.504337 0
-0.118930 +0.444923 0
-0.097638 +0.365269 0
-0.072119 +0.269801 0
-0.043855 +0.164064 0
-0.014519 +0.054315 0
+0.146844 -0.549349 0
+0.140453 -0.525442 0
+0.127605 -0.477375 0
+0.108892 -0.407368 0
+0.085317 -0.319175 0
+0.058226 -0.217825 0
+0.029210 -0.109275 0
+0.147552 -0.551999 0
+0.144477 -0.540493 0
+0.134812 -0.504336 0
+0.118930 -0.444924 0
+0.097638 -0.365269 0
+0.072119 -0.269801 0
+0.043855 -0.164063 0
+0.014519 -0.054315 0
-0.146844 +0.549349 0
-0.140453 +0.525442 0
-0.127605 +0.477374 0
-0.108891 +0.407368 0
-0.085317 +0.319176 0
-0.058226 +0.217825 0
-0.029210 +0.109275 0
-0.147552 +0.551999 0
-0.144477 +0.540493 0
-0.134812 +0.504336 0
-0.118930 +0.444924 0
-0.097638 +0.365269 0
-0.072119 +0.269802 0
-0.043855 +0.164064 0
-0.014519 +0.054315 0
+0.140311 -0.524909 0
+0.120308 -0.450079 0
+0.081399 -0.304516 0
+0.028680 -0.107295 0
-0.029082 +0.108797 0
-0.081745 +0.305811 0
-0.120551 +0.450988 0
-0.140430 +0.525356 0
+0.115732 -0.432958 0
+0.102779 -0.384502 0
+0.071046 -0.265784 0
+0.025139 -0.094046 0
-0.025570 +0.095657 0
-0.071341 +0.266890 0
-0.102973 +0.385225 0
-0.115845 +0.433383 0
+0.065658 -0.245630 0
+0.059177 -0.221383 0
+0.041177 -0.154045 0
+0.014549 -0.054428 0
-0.014646 +0.054792 0
-0.041005 +0.153401 0
-0.059295 +0.221823 0
-0.065802 +0.246167 0
+0.142812 -0.534265 0
+0.141307 -0.528636 0
+0.146293 -0.547287 0
+0.132824 -0.496902 0
+0.117939 -0.441216 0
+0.131814 -0.493122 0
+0.102998 -0.385319 0
+0.078359 -0.293145 0
+0.099935 -0.373861 0
+0.056275 -0.210528 0
+0.027362 -0.102364 0
+0.053865 -0.201513 0
-0.000204 +0.000763 0
-0.027734 +0.103752 0
-0.000187 +0.000700 0
-0.056653 +0.211942 0
-0.078678 +0.294338 0
-0.054211 +0.202806 0
-0.103300 +0.386450 0
-0.118164 +0.442058 0
-0.100251 +0.375044 0
-0.132984 +0.497497 0
-0.141427 +0.529083 0
-0.132006 +0.493841 0
-0.142843 +0.534382 0
-0.146346 +0.547485 0
+0.114709 -0.429130 0
+0.131588 -0.492276 0
+0.132132 -0.494313 0
+0.111577 -0.417413 0
+0.115152 -0.430787 0
+0.126016 -0.471431 0
+0.088984 -0.332894 0
+0.078940 -0.295319 0
+0.099356 -0.371694 0
+0.049351 -0.184624 0
+0.027972 -0.104645 0
+0.054798 -0.205001 0
-0.000191 +0.000716 0
-0.028379 +0.106168 0
-0.000199 +0.000746 0
-0.049773 +0.186203 0
-0.079319 +0.296736 0
-0.055202 +0.206512 0
-0.089462 +0.334683 0
-0.115398 +0.431708 0
-0.099641 +0.372762 0
-0.111766 +0.418123 0
-0.131756 +0.492906 0
-0.126258 +0.472336 0
-0.114786 +0.429421 0
-0.132240 +0.494717 0
+0.064079 -0.239722 0
+0.093429 -0.349523 0
+0.091800 -0.343428 0
+0.064233 -0.240298 0
+0.083813 -0.313550 0
+0.090899 -0.340056 0
+0.051658 -0.193254 0
+0.058204 -0.217745 0
+0.072969 -0.272980 0
+0.028531 -0.106735 0
+0.020631 -0.077181 0
+0.040502 -0.151521 0
-0.000118 +0.000442 0
-0.020955 +0.078393 0
-0.000161 +0.000603 0
-0.028470 +0.106507 0
-0.058447 +0.218652 0
-0.040774 +0.152538 0
-0.051682 +0.193344 0
-0.083958 +0.314089 0
-0.073076 +0.273380 0
-0.064292 +0.240521 0
-0.093567 +0.350037 0
-0.091036 +0.340570 0
-0.064154 +0.240005 0
-0.091871 +0.343692 0
+0.034244 -0.128106 0
+0.033203 -0.124215 0
+0.030859 -0.115444 0
+0.033468 -0.125203 0
+0.021260 -0.079536 0
+0.026691 -0.099854 0
+0.007556 -0.028266 0
+0.014844 -0.055532 0
-0.007649 +0.028617 0
-0.000061 +0.000229 0
-0.021325 +0.079778 0
-0.014890 +0.055705 0
-0.031032 +0.116094 0
-0.026770 +0.100148 0
-0.034161 +0.127799 0
-0.033337 +0.124714 0
-0.033091 +0.123795 0
+0.147116 -0.550366 0
+0.145352 -0.543768 0
+0.142233 -0.532099 0
+0.145457 -0.544160 0
+0.142194 -0.531952 0
+0.141764 -0.530343 0
+0.144360 -0.540059 0
+0.139009 -0.520040 0
+0.137118 -0.512965 0
+0.128538 -0.480865 0
+0.137214 -0.513324 0
+0.133278 -0.498600 0
+0.127191 -0.475826 0
+0.120038 -0.449069 0
+0.125404 -0.469141 0
+0.114136 -0.426989 0
+0.109414 -0.409322 0
+0.096105 -0.359533 0
+0.112232 -0.419863 0
+0.102278 -0.382625 0
+0.092688 -0.346748 0
+0.080540 -0.301303 0
+0.089546 -0.334994 0
+0.074977 -0.280494 0
+0.066414 -0.248459 0
+0.051359 -0.192135 0
+0.069214 -0.258934 0
+0.055536 -0.207761 0
+0.042711 -0.159785 0
+0.028262 -0.105730 0
+0.040801 -0.152640 0
+0.026034 -0.097394 0
+0.013651 -0.051069 0
-0.000173 +0.000647 0
+0.014319 -0.053570 0
-0.000197 +0.000738 0
-0.014725 +0.055089 0
-0.028652 +0.107188 0
-0.014025 +0.052469 0
-0.026375 +0.098671 0
-0.041161 +0.153986 0
-0.051679 +0.193333 0
-0.043102 +0.161246 0
-0.055899 +0.209120 0
-0.069579 +0.260298 0
-0.080874 +0.302554 0
-0.066748 +0.249708 0
-0.075271 +0.281593 0
-0.089867 +0.336196 0
-0.096388 +0.360593 0
-0.093013 +0.347967 0
-0.102580 +0.383758 0
-0.112505 +0.420888 0
-0.120276 +0.449956 0
-0.109682 +0.410327 0
-0.114346 +0.427771 0
-0.125616 +0.469934 0
-0.128716 +0.481532 0
-0.127399 +0.476606 0
-0.133464 +0.499294 0
-0.137346 +0.513819 0
-0.141877 +0.530769 0
-0.137273 +0.513545 0
-0.139124 +0.520469 0
-0.144445 +0.540377 0
-0.145406 +0.543970 0
-0.142271 +0.532243 0
-0.145502 +0.544329 0
-0.142245 +0.532146 0
-0.147140 +0.550458 0
+0.130505 -0.488226 0
+0.138355 -0.517592 0
+0.112458 -0.420711 0
+0.124212 -0.464681 0
+0.115936 -0.433723 0
+0.124515 -0.465816 0
+0.132542 -0.495844 0
+0.136911 -0.512191 0
+0.129511 -0.484506 0
+0.130405 -0.487851 0
+0.114384 -0.427915 0
+0.119708 -0.447834 0
+0.107909 -0.403691 0
+0.109835 -0.410898 0
+0.121273 -0.453686 0
+0.118689 -0.444020 0
+0.107903 -0.403669 0
+0.102038 -0.381728 0
+0.096544 -0.361176 0
+0.094983 -0.355336 0
+0.080601 -0.301531 0
+0.075650 -0.283009 0
+0.089696 -0.335557 0
+0.080880 -0.302577 0
+0.067297 -0.251762 0
+0.056042 -0.209656 0
+0.060626 -0.226803 0
+0.052558 -0.196622 0
+0.037476 -0.140199 0
+0.026821 -0.100340 0
+0.041645 -0.155796 0
+0.028591 -0.106960 0
+0.013979 -0.052294 0
-0.000204 +0.000762 0
+0.012549 -0.046947 0
-0.000199 +0.000743 0
-0.012930 +0.048373 0
-0.027237 +0.101893 0
-0.014380 +0.053796 0
-0.028998 +0.108482 0
-0.042047 +0.157300 0
-0.056431 +0.211110 0
-0.037917 +0.141849 0
-0.052973 +0.198176 0
-0.061004 +0.228218 0
-0.076005 +0.284339 0
-0.067691 +0.253234 0
-0.081237 +0.303911 0
-0.090039 +0.336841 0
-0.102339 +0.382854 0
-0.080965 +0.302894 0
-0.095339 +0.356666 0
-0.096901 +0.362512 0
-0.110061 +0.411743 0
-0.108167 +0.404659 0
-0.118934 +0.444939 0
-0.121512 +0.454581 0
-0.130579 +0.488501 0
-0.108098 +0.404399 0
-0.119935 +0.448682 0
-0.114536 +0.428486 0
-0.124663 +0.466372 0
-0.129717 +0.485279 0
-0.137049 +0.512707 0
-0.132680 +0.496360 0
-0.138413 +0.517808 0
-0.116031 +0.434077 0
-0.124309 +0.465045 0
-0.112497 +0.420855 0
-0.130560 +0.488432 0
+0.089223 -0.333786 0
+0.103879 -0.388617 0
+0.061795 -0.231177 0
+0.078381 -0.293227 0
+0.065550 -0.245227 0
+0.080056 -0.299491 0
+0.093329 -0.349149 0
+0.105292 -0.393901 0
+0.092901 -0.347545 0
+0.101964 -0.381451 0
+0.065638 -0.245554 0
+0.078109 -0.292211 0
+0.062353 -0.233266 0
+0.072034 -0.269481 0
+0.088062 -0.329444 0
+0.094033 -0.351782 0
+0.079055 -0.295750 0
+0.081630 -0.305381 0
+0.056025 -0.209593 0
+0.062805 -0.234955 0
+0.046912 -0.175500 0
+0.050096 -0.187413 0
+0.066137 -0.247422 0
+0.065184 -0.243855 0
+0.049776 -0.186215 0
+0.045317 -0.169533 0
+0.035215 -0.131740 0
+0.034811 -0.130230 0
+0.021763 -0.081417 0
+0.017738 -0.066360 0
+0.030803 -0.115236 0
+0.023078 -0.086337 0
+0.010324 -0.038623 0
-0.000177 +0.000664 0
+0.007271 -0.027203 0
-0.000141 +0.000528 0
-0.007480 +0.027984 0
-0.017959 +0.067185 0
-0.010647 +0.039830 0
-0.023467 +0.087793 0
-0.031111 +0.116389 0
-0.045680 +0.170890 0
-0.021786 +0.081501 0
-0.034930 +0.130674 0
-0.035096 +0.131295 0
-0.050149 +0.187609 0
-0.050033 +0.187174 0
-0.065454 +0.244864 0
-0.066320 +0.248105 0
-0.081957 +0.306606 0
-0.046817 +0.175144 0
-0.062871 +0.235202 0
-0.056089 +0.209833 0
-0.072164 +0.269969 0
-0.079177 +0.296204 0
-0.094204 +0.352422 0
-0.088201 +0.329965 0
-0.102131 +0.382076 0
-0.062444 +0.233604 0
-0.078210 +0.292588 0
-0.065737 +0.245924 0
-0.080196 +0.300018 0
-0.093037 +0.348054 0
-0.105416 +0.394367 0
-0.093433 +0.349538 0
-0.103954 +0.388897 0
-0.065660 +0.245639 0
-0.078454 +0.293501 0
-0.061832 +0.231316 0
-0.089257 +0.333915 0
+0.031798 -0.118959 0
+0.048842 -0.182720 0
+0.016504 -0.061742 0
+0.017013 -0.063648 0
+0.034333 -0.128441 0
+0.050190 -0.187764 0
+0.034453 -0.128890 0
+0.049110 -0.183721 0
+0.016615 -0.062158 0
+0.015306 -0.057260 0
+0.032718 -0.122399 0
+0.045265 -0.169340 0
+0.029264 -0.109479 0
+0.039404 -0.147412 0
+0.013226 -0.049479 0
+0.010526 -0.039378 0
+0.024383 -0.091219 0
+0.031403 -0.117479 0
+0.018366 -0.068708 0
+0.021811 -0.081598 0
+0.007345 -0.027478 0
+0.003737 -0.013981 0
+0.011381 -0.042578 0
+0.011114 -0.041580 0
+0.003796 -0.014202 0
-0.000090 +0.000337 0
-0.000030 +0.000113 0
-0.003783 +0.014153 0
-0.003913 +0.014641 0
-0.011208 +0.041929 0
-0.011455 +0.042852 0
-0.021797 +0.081544 0
-0.007368 +0.027563 0
-0.010558 +0.039499 0
-0.018418 +0.068901 0
-0.031339 +0.117242 0
-0.024454 +0.091484 0
-0.039452 +0.147593 0
-0.013266 +0.049627 0
-0.015393 +0.057585 0
-0.029387 +0.109938 0
-0.045410 +0.169882 0
-0.032749 +0.122515 0
-0.049076 +0.183594 0
-0.016550 +0.061914 0
-0.016973 +0.063495 0
-0.034345 +0.128485 0
-0.050224 +0.187891 0
-0.034235 +0.128076 0
-0.048826 +0.182659 0
-0.016448 +0.061533 0
-0.031742 +0.118747 0
-0.140330 +0.524982 0
-0.120311 +0.450087 0
-0.081392 +0.304489 0
-0.028676 +0.107278 0
+0.029085 -0.108808 0
+0.081752 -0.305837 0
+0.120551 -0.450985 0
+0.140421 -0.525321 0
-0.115602 +0.432472 0
-0.102657 +0.384046 0
-0.070984 +0.265556 0
-0.025186 +0.094223 0
+0.025630 -0.095882 0
+0.071341 -0.266890 0
+0.102929 -0.385060 0
+0.115732 -0.432958 0
-0.065615 +0.245469 0
-0.059138 +0.221238 0
-0.040775 +0.152541 0
-0.014592 +0.054589 0
+0.014820 -0.055443 0
+0.040964 -0.153249 0
+0.059259 -0.221690 0
+0.065685 -0.245729 0
-0.142809 +0.534255 0
-0.141309 +0.528644 0
-0.146292 +0.547286 0
-0.132808 +0.496840 0
-0.117966 +0.441317 0
-0.131835 +0.493200 0
-0.103006 +0.385351 0
-0.078384 +0.293239 0
-0.099963 +0.373965 0
-0.056289 +0.210579 0
-0.027373 +0.102403 0
-0.053884 +0.201582 0
+0.000207 -0.000775 0
+0.027735 -0.103757 0
+0.000187 -0.000698 0
+0.056662 -0.211976 0
+0.078685 -0.294362 0
+0.054216 -0.202825 0
+0.103298 -0.386443 0
+0.118167 -0.442069 0
+0.100214 -0.374904 0
+0.133012 -0.497603 0
+0.141417 -0.529048 0
+0.131983 -0.493752 0
+0.142880 -0.534520 0
+0.146346 -0.547488 0
-0.114764 +0.429339 0
-0.131653 +0.492521 0
-0.132170 +0.494453 0
-0.111678 +0.417792 0
-0.115205 +0.430988 0
-0.126080 +0.471673 0
-0.089062 +0.333184 0
-0.078965 +0.295412 0
-0.099394 +0.371836 0
-0.049396 +0.184794 0
-0.027986 +0.104698 0
-0.054816 +0.205071 0
+0.000196 -0.000734 0
+0.028403 -0.106256 0
+0.000205 -0.000766 0
+0.049850 -0.186491 0
+0.079325 -0.296756 0
+0.055211 -0.206548 0
+0.089454 -0.334653 0
+0.115503 -0.432103 0
+0.099635 -0.372739 0
+0.111853 -0.418449 0
+0.131805 -0.493089 0
+0.126256 -0.472328 0
+0.114838 -0.429615 0
+0.132247 -0.494741 0
-0.064006 +0.239449 0
-0.093383 +0.349348 0
-0.091774 +0.343331 0
-0.064105 +0.239818 0
-0.083783 +0.313437 0
-0.090855 +0.339893 0
-0.051578 +0.192954 0
-0.058138 +0.217499 0
-0.072911 +0.272762 0
-0.028645 +0.107162 0
-0.020678 +0.077358 0
-0.040530 +0.151623 0
+0.000120 -0.000450 0
+0.021016 -0.078622 0
+0.000163 -0.000608 0
+0.028859 -0.107964 0
+0.058403 -0.218487 0
+0.040842 -0.152792 0
+0.051750 -0.193598 0
+0.083965 -0.314115 0
+0.073119 -0.273540 0
+0.064300 -0.240548 0
+0.093534 -0.349916 0
+0.091024 -0.340524 0
+0.064151 -0.239990 0
+0.091853 -0.343625 0
-0.034321 +0.128395 0
-0.033252 +0.124396 0
-0.030958 +0.115815 0
-0.033567 +0.125575 0
-0.021297 +0.079673 0
-0.026763 +0.100123 0
-0.007581 +0.028362 0
-0.014852 +0.055563 0
+0.007701 -0.028810 0
+0.000061 -0.000230 0
+0.021397 -0.080047 0
+0.014962 -0.055972 0
+0.030968 -0.115854 0
+0.026845 -0.100428 0
+0.034222 -0.128027 0
+0.033408 -0.124982 0
+0.033213 -0.124253 0
-0.147115 +0.550364 0
-0.145353 +0.543772 0
-0.142231 +0.532092 0
-0.145455 +0.544152 0
-0.142205 +0.531995 0
-0.141766 +0.530352 0
-0.144361 +0.540062 0
-0.139012 +0.520049 0
-0.137127 +0.513000 0
-0.128555 +0.480930 0
-0.137207 +0.513298 0
-0.133286 +0.498630 0
-0.127192 +0.475832 0
-0.120039 +0.449071 0
-0.125428 +0.469231 0
-0.114156 +0.427063 0
-0.109442 +0.409427 0
-0.096124 +0.359603 0
-0.112229 +0.419852 0
-0.102301 +0.382713 0
-0.092696 +0.346781 0
-0.080539 +0.301299 0
-0.089572 +0.335093 0
-0.074994 +0.280556 0
-0.066437 +0.248544 0
-0.051370 +0.192178 0
-0.069211 +0.258923 0
-0.055554 +0.207831 0
-0.042722 +0.159826 0
-0.028262 +0.105728 0
-0.040816 +0.152693 0
-0.026040 +0.097415 0
-0.013657 +0.051091 0
+0.000173 -0.000646 0
-0.014315 +0.053554 0
+0.000199 -0.000743 0
+0.014729 -0.055102 0
+0.028652 -0.107190 0
+0.014026 -0.052471 0
+0.026375 -0.098672 0
+0.041164 -0.153998 0
+0.051682 -0.193343 0
+0.043109 -0.161274 0
+0.055905 -0.209145 0
+0.069589 -0.260337 0
+0.080884 -0.302591 0
+0.066754 -0.249730 0
+0.075275 -0.281609 0
+0.089849 -0.336129 0
+0.096363 -0.360498 0
+0.093014 -0.347968 0
+0.102569 -0.383714 0
+0.112505 -0.420888 0
+0.120278 -0.449966 0
+0.109668 -0.410273 0
+0.114348 -0.427780 0
+0.125602 -0.469883 0
+0.128696 -0.481456 0
+0.127403 -0.476620 0