# vtk DataFile Version 2.0
MyTitle
ASCII
DATASET UNSTRUCTURED_GRID
POINTS 2773 double
0.800000 -0.800000 0.000000
0.800000 0.800000 0.000000
-0.800000 0.800000 0.000000
-0.800000 -0.800000 0.000000
1.414214 -1.414214 0.000000
1.414214 1.414214 0.000000
-1.414214 1.414214 0.000000
-1.414214 -1.414214 0.000000
0.800000 -0.711111 0.000000
0.800000 -0.622222 0.000000
0.800000 -0.533333 0.000000
0.800000 -0.444444 0.000000
0.800000 -0.355556 0.000000
0.800000 -0.266667 0.000000
0.800000 -0.177778 0.000000
0.800000 -0.088889 0.000000
0.800000 -0.000000 0.000000
0.800000 0.088889 0.000000
0.800000 0.177778 0.000000
0.800000 0.266667 0.000000
0.800000 0.355556 0.000000
0.800000 0.444444 0.000000
0.800000 0.533333 0.000000
0.800000 0.622222 0.000000
0.800000 0.711111 0.000000
0.800000 -0.755556 0.000000
0.800000 -0.666667 0.000000
0.800000 -0.577778 0.000000
0.800000 -0.488889 0.000000
0.800000 -0.400000 0.000000
0.800000 -0.311111 0.000000
0.800000 -0.222222 0.000000
0.800000 -0.133333 0.000000
0.800000 -0.044444 0.000000
0.800000 0.044444 0.000000
0.800000 0.133333 0.000000
0.800000 0.222222 0.000000
0.800000 0.311111 0.000000
0.800000 0.400000 0.000000
0.800000 0.488889 0.000000
0.800000 0.577778 0.000000
0.800000 0.666667 0.000000
0.800000 0.755556 0.000000
0.711111 0.800000 0.000000
0.622222 0.800000 0.000000
0.533333 0.800000 0.000000
0.444444 0.800000 0.000000
0.355556 0.800000 0.000000
0.266667 0.800000 0.000000
0.177778 0.800000 0.000000
0.088889 0.800000 0.000000
0.000000 0.800000 0.000000
-0.088889 0.800000 0.000000
-0.177778 0.800000 0.000000
-0.266667 0.800000 0.000000
-0.355556 0.800000 0.000000
-0.444444 0.800000 0.000000
-0.533333 0.800000 0.000000
-0.622222 0.800000 0.000000
-0.711111 0.800000 0.000000
0.755556 0.800000 0.000000
0.666667 0.800000 0.000000
0.577778 0.800000 0.000000
0.488889 0.800000 0.000000
0.400000 0.800000 0.000000
0.311111 0.800000 0.000000
0.222222 0.800000 0.000000
0.133333 0.800000 0.000000
0.044444 0.800000 0.000000
-0.044444 0.800000 0.000000
-0.133333 0.800000 0.000000
-0.222222 0.800000 0.000000
-0.311111 0.800000 0.000000
-0.400000 0.800000 0.000000
-0.488889 0.800000 0.000000
-0.577778 0.800000 0.000000
-0.666667 0.800000 0.000000
-0.755556 0.800000 0.000000
-0.800000 0.711111 0.000000
-0.800000 0.622222 0.000000
-0.800000 0.533333 0.000000
-0.800000 0.444444 0.000000
-0.800000 0.355556 0.000000
-0.800000 0.266667 0.000000
-0.800000 0.177778 0.000000
-0.800000 0.088889 0.000000
-0.800000 0.000000 0.000000
-0.800000 -0.088889 0.000000
-0.800000 -0.177778 0.000000
-0.800000 -0.266667 0.000000
-0.800000 -0.355556 0.000000
-0.800000 -0.444444 0.000000
-0.800000 -0.533333 0.000000
-0.800000 -0.622222 0.000000
-0.800000 -0.711111 0.000000
-0.800000 0.755556 0.000000
-0.800000 0.666667 0.000000
-0.800000 0.577778 0.000000
-0.800000 0.488889 0.000000
-0.800000 0.400000 0.000000
-0.800000 0.311111 0.000000
-0.800000 0.222222 0.000000
-0.800000 0.133333 0.000000
-0.800000 0.044444 0.000000
-0.800000 -0.044444 0.000000
-0.800000 -0.133333 0.000000
-0.800000 -0.222222 0.000000
-0.800000 -0.311111 0.000000
-0.800000 -0.400000 0.000000
-0.800000 -0.488889 0.000000
-0.800000 -0.577778 0.000000
-0.800000 -0.666667 0.000000
-0.800000 -0.755556 0.000000
-0.711111 -0.800000 0.000000
-0.622222 -0.800000 0.000000
-0.533333 -0.800000 0.000000
-0.444444 -0.800000 0.000000
-0.355556 -0.800000 0.000000
-0.266667 -0.800000 0.000000
-0.177778 -0.800000 0.000000
-0.088889 -0.800000 0.000000
-0.000000 -0.800000 0.000000
0.088889 -0.800000 0.000000
0.177778 -0.800000 0.000000
0.266667 -0.800000 0.000000
0.355556 -0.800000 0.000000
0.444444 -0.800000 0.000000
0.533333 -0.800000 0.000000
0.622222 -0.800000 0.000000
0.711111 -0.800000 0.000000
-0.755556 -0.800000 0.000000
-0.666667 -0.800000 0.000000
-0.577778 -0.800000 0.000000
-0.488889 -0.800000 0.000000
-0.400000 -0.800000 0.000000
-0.311111 -0.800000 0.000000
-0.222222 -0.800000 0.000000
-0.133333 -0.800000 0.000000
-0.044444 -0.800000 0.000000
0.044444 -0.800000 0.000000
0.133333 -0.800000 0.000000
0.222222 -0.800000 0.000000
0.311111 -0.800000 0.000000
0.400000 -0.800000 0.000000
0.488889 -0.800000 0.000000
0.577778 -0.800000 0.000000
0.666667 -0.800000 0.000000
0.755556 -0.800000 0.000000
1.532089 -1.285575 0.000000
1.638304 -1.147153 0.000000
1.732051 -1.000000 0.000000
1.812616 -0.845237 0.000000
1.879385 -0.684040 0.000000
1.931852 -0.517638 0.000000
1.969616 -0.347296 0.000000
1.992389 -0.174311 0.000000
2.000000 -0.000000 0.000000
1.992389 0.174311 0.000000
1.969616 0.347296 0.000000
1.931852 0.517638 0.000000
1.879385 0.684040 0.000000
1.812616 0.845237 0.000000
1.732051 1.000000 0.000000
1.638304 1.147153 0.000000
1.532089 1.285575 0.000000
1.474555 -1.351180 0.000000
1.586707 -1.217523 0.000000
1.686783 -1.074599 0.000000
1.774022 -0.923497 0.000000
1.847759 -0.765367 0.000000
1.907434 -0.601412 0.000000
1.952592 -0.432879 0.000000
1.982890 -0.261052 0.000000
1.998096 -0.087239 0.000000
1.998096 0.087239 0.000000
1.982890 0.261052 0.000000
1.952592 0.432879 0.000000
1.907434 0.601412 0.000000
1.847759 0.765367 0.000000
1.774022 0.923497 0.000000
1.686783 1.074599 0.000000
1.586707 1.217523 0.000000
1.474555 1.351180 0.000000
1.285575 1.532089 0.000000
1.147153 1.638304 0.000000
1.000000 1.732051 0.000000
0.845237 1.812616 0.000000
0.684040 1.879385 0.000000
0.517638 1.931852 0.000000
0.347296 1.969616 0.000000
0.174311 1.992389 0.000000
0.000000 2.000000 0.000000
-0.174311 1.992389 0.000000
-0.347296 1.969616 0.000000
-0.517638 1.931852 0.000000
-0.684040 1.879385 0.000000
-0.845237 1.812616 0.000000
-1.000000 1.732051 0.000000
-1.147153 1.638304 0.000000
-1.285575 1.532089 0.000000
1.351180 1.474555 0.000000
1.217523 1.586707 0.000000
1.074599 1.686783 0.000000
0.923497 1.774022 0.000000
0.765367 1.847759 0.000000
0.601412 1.907434 0.000000
0.432879 1.952592 0.000000
0.261052 1.982890 0.000000
0.087239 1.998096 0.000000
-0.087239 1.998096 0.000000
-0.261052 1.982890 0.000000
-0.432879 1.952592 0.000000
-0.601412 1.907434 0.000000
-0.765367 1.847759 0.000000
-0.923497 1.774022 0.000000
-1.074599 1.686783 0.000000
-1.217523 1.586707 0.000000
-1.351180 1.474555 0.000000
-1.532089 1.285575 0.000000
-1.638304 1.147153 0.000000
-1.732051 1.000000 0.000000
-1.812616 0.845237 0.000000
-1.879385 0.684040 0.000000
-1.931852 0.517638 0.000000
-1.969616 0.347296 0.000000
-1.992389 0.174311 0.000000
-2.000000 0.000000 0.000000
-1.992389 -0.174311 0.000000
-1.969616 -0.347296 0.000000
-1.931852 -0.517638 0.000000
-1.879385 -0.684040 0.000000
-1.812616 -0.845237 0.000000
-1.732051 -1.000000 0.000000
-1.638304 -1.147153 0.000000
-1.532089 -1.285575 0.000000
-1.474555 1.351180 0.000000
-1.586707 1.217523 0.000000
-1.686783 1.074599 0.000000
-1.774022 0.923497 0.000000
-1.847759 0.765367 0.000000
-1.907434 0.601412 0.000000
-1.952592 0.432879 0.000000
-1.982890 0.261052 0.000000
-1.998096 0.087239 0.000000
-1.998096 -0.087239 0.000000
-1.982890 -0.261052 0.000000
-1.952592 -0.432879 0.000000
-1.907434 -0.601412 0.000000
-1.847759 -0.765367 0.000000
-1.774022 -0.923497 0.000000
-1.686783 -1.074599 0.000000
-1.586707 -1.217523 0.000000
-1.474555 -1.351180 0.000000
-1.285575 -1.532089 0.000000
-1.147153 -1.638304 0.000000
-1.000000 -1.732051 0.000000
-0.845237 -1.812616 0.000000
-0.684040 -1.879385 0.000000
-0.517638 -1.931852 0.000000
-0.347296 -1.969616 0.000000
-0.174311 -1.992389 0.000000
-0.000000 -2.000000 0.000000
0.174311 -1.992389 0.000000
0.347296 -1.969616 0.000000
0.517638 -1.931852 0.000000
0.684040 -1.879385 0.000000
0.845237 -1.812616 0.000000
1.000000 -1.732051 0.000000
1.147153 -1.638304 0.000000
1.285575 -1.532089 0.000000
-1.351180 -1.474555 0.000000
-1.217523 -1.586707 0.000000
-1.074599 -1.686783 0.000000
-0.923497 -1.774022 0.000000
-0.765367 -1.847759 0.000000
-0.601412 -1.907434 0.000000
-0.432879 -1.952592 0.000000
-0.261052 -1.982890 0.000000
-0.087239 -1.998096 0.000000
0.087239 -1.998096 0.000000
0.261052 -1.982890 0.000000
0.432879 -1.952592 0.000000
0.601412 -1.907434 0.000000
0.765367 -1.847759 0.000000
0.923497 -1.774022 0.000000
1.074599 -1.686783 0.000000
1.217523 -1.586707 0.000000
1.351180 -1.474555 0.000000
0.876777 -0.876777 0.000000
0.953553 -0.953553 0.000000
1.030330 -1.030330 0.000000
1.107107 -1.107107 0.000000
1.183883 -1.183883 0.000000
1.260660 -1.260660 0.000000
1.337437 -1.337437 0.000000
0.838388 -0.838388 0.000000
0.915165 -0.915165 0.000000
0.991942 -0.991942 0.000000
1.068718 -1.068718 0.000000
1.145495 -1.145495 0.000000
1.222272 -1.222272 0.000000
1.299049 -1.299049 0.000000
1.375825 -1.375825 0.000000
0.876777 0.876777 0.000000
0.953553 0.953553 0.000000
1.030330 1.030330 0.000000
1.107107 1.107107 0.000000
1.183883 1.183883 0.000000
1.260660 1.260660 0.000000
1.337437 1.337437 0.000000
0.838388 0.838388 0.000000
0.915165 0.915165 0.000000
0.991942 0.991942 0.000000
1.068718 1.068718 0.000000
1.145495 1.145495 0.000000
1.222272 1.222272 0.000000
1.299049 1.299049 0.000000
1.375825 1.375825 0.000000
-0.876777 0.876777 0.000000
-0.953553 0.953553 0.000000
-1.030330 1.030330 0.000000
-1.107107 1.107107 0.000000
-1.183883 1.183883 0.000000
-1.260660 1.260660 0.000000
-1.337437 1.337437 0.000000
-0.838388 0.838388 0.000000
-0.915165 0.915165 0.000000
-0.991942 0.991942 0.000000
-1.068718 1.068718 0.000000
-1.145495 1.145495 0.000000
-1.222272 1.222272 0.000000
-1.299049 1.299049 0.000000
-1.375825 1.375825 0.000000
-0.876777 -0.876777 0.000000
-0.953553 -0.953553 0.000000
-1.030330 -1.030330 0.000000
-1.107107 -1.107107 0.000000
-1.183883 -1.183883 0.000000
-1.260660 -1.260660 0.000000
-1.337437 -1.337437 0.000000
-0.838388 -0.838388 0.000000
-0.915165 -0.915165 0.000000
-0.991942 -0.991942 0.000000
-1.068718 -1.068718 0.000000
-1.145495 -1.145495 0.000000
-1.222272 -1.222272 0.000000
-1.299049 -1.299049 0.000000
-1.375825 -1.375825 0.000000
1.004570 -0.750138 0.000000
1.046902 -0.541729 0.000000
1.076366 -0.327598 0.000000
1.091686 -0.109645 0.000000
1.091564 0.109637 0.000000
1.076182 0.327573 0.000000
[...]
POINT_DATA 2773
VECTORS sol double
-0.412448 -0.181222 0
+0.296849 +0.130511 0
+0.412448 +0.181222 0
-0.296849 -0.130511 0
+0.000000 +0.000000 0
+0.000000 +0.000000 0
+0.000000 +0.000000 0
+0.000000 +0.000000 0
-0.403144 -0.177129 0
-0.385348 -0.169304 0
-0.359493 -0.157938 0
-0.326212 -0.143308 0
-0.286319 -0.125773 0
-0.240789 -0.105761 0
-0.190736 -0.083761 0
-0.137380 -0.060311 0
-0.082020 -0.035980 0
-0.025997 -0.011359 0
+0.029335 +0.012959 0
+0.082649 +0.036389 0
+0.132674 +0.058373 0
+0.178229 +0.078392 0
+0.218253 +0.095979 0
+0.251831 +0.110734 0
+0.278216 +0.122326 0
-0.408877 -0.179650 0
-0.395287 -0.173674 0
-0.373395 -0.164049 0
-0.343736 -0.151011 0
-0.307036 -0.134879 0
-0.264193 -0.116048 0
-0.216255 -0.094978 0
-0.164392 -0.072183 0
-0.109867 -0.048219 0
-0.054006 -0.023668 0
+0.001840 +0.000876 0
+0.056327 +0.024821 0
+0.108151 +0.047596 0
+0.156082 +0.068659 0
+0.198996 +0.087517 0
+0.235901 +0.103734 0
+0.265965 +0.116943 0
+0.288531 +0.126857 0
+0.327746 +0.144088 0
+0.357696 +0.157248 0
+0.386234 +0.169787 0
+0.412894 +0.181499 0
+0.437227 +0.192188 0
+0.458804 +0.201664 0
+0.477231 +0.209756 0
+0.492151 +0.216306 0
+0.503259 +0.221180 0
+0.510304 +0.224269 0
+0.513097 +0.225489 0
+0.511517 +0.224788 0
+0.505513 +0.222143 0
+0.495107 +0.217564 0
+0.480393 +0.211092 0
+0.461541 +0.202803 0
+0.438792 +0.192802 0
+0.312382 +0.137337 0
+0.342865 +0.150732 0
+0.372168 +0.163607 0
+0.399825 +0.175758 0
+0.425378 +0.186983 0
+0.448384 +0.197088 0
+0.468434 +0.205893 0
+0.485148 +0.213232 0
+0.498198 +0.218960 0
+0.507302 +0.222953 0
+0.512241 +0.225117 0
+0.512858 +0.225381 0
+0.509068 +0.223708 0
+0.500855 +0.220093 0
+0.488278 +0.214560 0
+0.471469 +0.207168 0
+0.450634 +0.198007 0
+0.426043 +0.187198 0
+0.403144 +0.177129 0
+0.385348 +0.169304 0
+0.359493 +0.157938 0
+0.326212 +0.143308 0
+0.286319 +0.125773 0
+0.240789 +0.105761 0
+0.190736 +0.083761 0
+0.137380 +0.060311 0
+0.082020 +0.035980 0
+0.025997 +0.011359 0
-0.029335 -0.012959 0
-0.082649 -0.036389 0
-0.132674 -0.058373 0
-0.178229 -0.078392 0
-0.218253 -0.095979 0
-0.251831 -0.110734 0
-0.278216 -0.122326 0
+0.408877 +0.179650 0
+0.395287 +0.173674 0
+0.373395 +0.164049 0
+0.343736 +0.151011 0
+0.307036 +0.134879 0
+0.264193 +0.116048 0
+0.216255 +0.094978 0
+0.164392 +0.072183 0
+0.109867 +0.048219 0
+0.054006 +0.023668 0
-0.001840 -0.000876 0
-0.056327 -0.024821 0
-0.108151 -0.047596 0
-0.156082 -0.068659 0
-0.198996 -0.087517 0
-0.235901 -0.103734 0
-0.265965 -0.116943 0
-0.288531 -0.126857 0
-0.327746 -0.144088 0
-0.357696 -0.157248 0
-0.386234 -0.169787 0
-0.412894 -0.181499 0
-0.437227 -0.192188 0
-0.458804 -0.201664 0
-0.477231 -0.209756 0
-0.492151 -0.216306 0
-0.503259 -0.221180 0
-0.510304 -0.224269 0
-0.513097 -0.225489 0
-0.511517 -0.224788 0
-0.505513 -0.222143 0
-0.495107 -0.217564 0
-0.480393 -0.211092 0
-0.461541 -0.202803 0
-0.438792 -0.192802 0
-0.312382 -0.137337 0
-0.342865 -0.150732 0
-0.372168 -0.163607 0
-0.399825 -0.175758 0
-0.425377 -0.186983 0
-0.448384 -0.197088 0
-0.468434 -0.205893 0
-0.485149 -0.213232 0
-0.498198 -0.218960 0
-0.507302 -0.222953 0
-0.512241 -0.225117 0
-0.512858 -0.225381 0
-0.509068 -0.223708 0
-0.500855 -0.220093 0
-0.488278 -0.214560 0
-0.471469 -0.207168 0
-0.450634 -0.198007 0
-0.426043 -0.187198 0
+0.000000 +0.000000 0
+0.000000 +0.000000 0
+0.000000 +0.000000 0
+0.000000 +0.000000 0
+0.000000 +0.000000 0
+0.000000 +0.000000 0
+0.000000 +0.000000 0
+0.000000 +0.000000 0
+0.000000 +0.000000 0
+0.000000 +0.000000 0
+0.000000 +0.000000 0
+0.000000 +0.000000 0
+0.000000 +0.000000 0
+0.000000 +0.000000 0
+0.000000 +0.000000 0
+0.000000 +0.000000 0
+0.000000 +0.000000 0
+0.000000 +0.000000 0
+0.000000 +0.000000 0
+0.000000 +0.000000 0
+0.000000 +0.000000 0
+0.000000 +0.000000 0
+0.000000 +0.000000 0
+0.000000 +0.000000 0
+0.000000 +0.000000 0
+0.000000 +0.000000 0
+0.000000 +0.000000 0
+0.000000 +0.000000 0
+0.000000 +0.000000 0
+0.000000 +0.000000 0
+0.000000 +0.000000 0
+0.000000 +0.000000 0
+0.000000 +0.000000 0
+0.000000 +0.000000 0
+0.000000 +0.000000 0
+0.000000 +0.000000 0
+0.000000 +0.000000 0
+0.000000 +0.000000 0
+0.000000 +0.000000 0
+0.000000 +0.000000 0
+0.000000 +0.000000 0
+0.000000 +0.000000 0
+0.000000 +0.000000 0
+0.000000 +0.000000 0
+0.000000 +0.000000 0
+0.000000 +0.000000 0
+0.000000 +0.000000 0
+0.000000 +0.000000 0
+0.000000 +0.000000 0
+0.000000 +0.000000 0
+0.000000 +0.000000 0
+0.000000 +0.000000 0
+0.000000 +0.000000 0
+0.000000 +0.000000 0
+0.000000 +0.000000 0
+0.000000 +0.000000 0
+0.000000 +0.000000 0
+0.000000 +0.000000 0
+0.000000 +0.000000 0
+0.000000 +0.000000 0
+0.000000 +0.000000 0
+0.000000 +0.000000 0
+0.000000 +0.000000 0
+0.000000 +0.000000 0
+0.000000 +0.000000 0
+0.000000 +0.000000 0
+0.000000 +0.000000 0
+0.000000 +0.000000 0
+0.000000 +0.000000 0
+0.000000 +0.000000 0
+0.000000 +0.000000 0
+0.000000 +0.000000 0
+0.000000 +0.000000 0
+0.000000 +0.000000 0
+0.000000 +0.000000 0
+0.000000 +0.000000 0
+0.000000 +0.000000 0
+0.000000 +0.000000 0
+0.000000 +0.000000 0
+0.000000 +0.000000 0
+0.000000 +0.000000 0
+0.000000 +0.000000 0
+0.000000 +0.000000 0
+0.000000 +0.000000 0
+0.000000 +0.000000 0
+0.000000 +0.000000 0
+0.000000 +0.000000 0
+0.000000 +0.000000 0
+0.000000 +0.000000 0
+0.000000 +0.000000 0
+0.000000 +0.000000 0
+0.000000 +0.000000 0
+0.000000 +0.000000 0
+0.000000 +0.000000 0
+0.000000 +0.000000 0
+0.000000 +0.000000 0
+0.000000 +0.000000 0
+0.000000 +0.000000 0
+0.000000 +0.000000 0
+0.000000 +0.000000 0
+0.000000 +0.000000 0
+0.000000 +0.000000 0
+0.000000 +0.000000 0
+0.000000 +0.000000 0
+0.000000 +0.000000 0
+0.000000 +0.000000 0
+0.000000 +0.000000 0
+0.000000 +0.000000 0
+0.000000 +0.000000 0
+0.000000 +0.000000 0
+0.000000 +0.000000 0
+0.000000 +0.000000 0
+0.000000 +0.000000 0
+0.000000 +0.000000 0
+0.000000 +0.000000 0
+0.000000 +0.000000 0
+0.000000 +0.000000 0
+0.000000 +0.000000 0
+0.000000 +0.000000 0
+0.000000 +0.000000 0
+0.000000 +0.000000 0
+0.000000 +0.000000 0
+0.000000 +0.000000 0
+0.000000 +0.000000 0
+0.000000 +0.000000 0
+0.000000 +0.000000 0
+0.000000 +0.000000 0
+0.000000 +0.000000 0
+0.000000 +0.000000 0
+0.000000 +0.000000 0
+0.000000 +0.000000 0
+0.000000 +0.000000 0
+0.000000 +0.000000 0
+0.000000 +0.000000 0
+0.000000 +0.000000 0
+0.000000 +0.000000 0
+0.000000 +0.000000 0
+0.000000 +0.000000 0
+0.000000 +0.000000 0
+0.000000 +0.000000 0
-0.386637 -0.169881 0
-0.349853 -0.153719 0
-0.303589 -0.133391 0
-0.249651 -0.109692 0
-0.190085 -0.083520 0
-0.127097 -0.055844 0
-0.062976 -0.027671 0
-0.400997 -0.176191 0
-0.369535 -0.162367 0
-0.327803 -0.144030 0
-0.277460 -0.121910 0
-0.220440 -0.096857 0
-0.158879 -0.069809 0
-0.095038 -0.041758 0
-0.031201 -0.013709 0
+0.278273 +0.122344 0
+0.251798 +0.110704 0
+0.218501 +0.096065 0
+0.179680 +0.078997 0
+0.136809 +0.060149 0
+0.091475 +0.040217 0
+0.045326 +0.019928 0
+0.288608 +0.126888 0
+0.265964 +0.116932 0
+0.235928 +0.103727 0
+0.199694 +0.087797 0
+0.158656 +0.069754 0
+0.114349 +0.050274 0
+0.068401 +0.030073 0
+0.022456 +0.009873 0
+0.386637 +0.169881 0
+0.349853 +0.153719 0
+0.303589 +0.133391 0
+0.249651 +0.109692 0
+0.190085 +0.083520 0
+0.127097 +0.055844 0
+0.062976 +0.027671 0
+0.400997 +0.176191 0
+0.369535 +0.162367 0
+0.327803 +0.144030 0
+0.277460 +0.121910 0
+0.220440 +0.096857 0
+0.158879 +0.069809 0
+0.095038 +0.041758 0
+0.031201 +0.013709 0
-0.278273 -0.122344 0
-0.251798 -0.110704 0
-0.218501 -0.096065 0
-0.179680 -0.078997 0
-0.136809 -0.060149 0
-0.091475 -0.040217 0
-0.045326 -0.019928 0
-0.288608 -0.126888 0
-0.265964 -0.116932 0
-0.235928 -0.103727 0
-0.199695 -0.087797 0
-0.158656 -0.069754 0
-0.114349 -0.050274 0
-0.068401 -0.030073 0
-0.022456 -0.009873 0
-0.339079 -0.148974 0
-0.295871 -0.129976 0
-0.224847 -0.098755 0
-0.133258 -0.058499 0
-0.031639 -0.013837 0
+0.068039 +0.029967 0
+0.154137 +0.067801 0
+0.217595 +0.095682 0
-0.249982 -0.109829 0
-0.221952 -0.097502 0
-0.171317 -0.075242 0
-0.102919 -0.045179 0
-0.027602 -0.012077 0
+0.047249 +0.020817 0
+0.111772 +0.049169 0
+0.158354 +0.069633 0
-0.132472 -0.058201 0
-0.118321 -0.051977 0
-0.091854 -0.040342 0
-0.055772 -0.024482 0
-0.015850 -0.006937 0
+0.023414 +0.010318 0
+0.058121 +0.025569 0
+0.083195 +0.036584 0
-0.348860 -0.153277 0
-0.368334 -0.161828 0
-0.381857 -0.167775 0
-0.321352 -0.141178 0
-0.317153 -0.139327 0
-0.346645 -0.152292 0
-0.263528 -0.115758 0
-0.237993 -0.104531 0
-0.280672 -0.123290 0
-0.181049 -0.079504 0
-0.138750 -0.060911 0
-0.190273 -0.083556 0
-0.082978 -0.036401 0
-0.030037 -0.013132 0
-0.084849 -0.037221 0
+0.019210 +0.008509 0
+0.076295 +0.033598 0
+0.024170 +0.010691 0
+0.113467 +0.049930 0
+0.168837 +0.074264 0
+0.124910 +0.054961 0
+0.189030 +0.083132 0
+0.238270 +0.104772 0
+0.206891 +0.090985 0
+0.238668 +0.104939 0
+0.262298 +0.115328 0
-0.253712 -0.111472 0
-0.298730 -0.131246 0
-0.305531 -0.134240 0
-0.238670 -0.104853 0
-0.263294 -0.115664 0
-0.284734 -0.125091 0
-0.198879 -0.087358 0
-0.201995 -0.088717 0
-0.235727 -0.103545 0
-0.138869 -0.060980 0
-0.121149 -0.053182 0
-0.163532 -0.071810 0
-0.065522 -0.028743 0
-0.030795 -0.013472 0
-0.076508 -0.033562 0
+0.010501 +0.004668 0
+0.058226 +0.025649 0
+0.014607 +0.006481 0
+0.081526 +0.035879 0
+0.134709 +0.059257 0
+0.098632 +0.043405 0
+0.137528 +0.060485 0
+0.190472 +0.083756 0
+0.165827 +0.072929 0
+0.172663 +0.075918 0
+0.208574 +0.091707 0
-0.133486 -0.058649 0
-0.194070 -0.085264 0
-0.196195 -0.086201 0
-0.127720 -0.056110 0
-0.173135 -0.076056 0
-0.186501 -0.081933 0
-0.106814 -0.046918 0
-0.134129 -0.058909 0
-0.155949 -0.068501 0
-0.074508 -0.032717 0
-0.081307 -0.035691 0
-0.109139 -0.047924 0
-0.035946 -0.015769 0
-0.022633 -0.009905 0
-0.052348 -0.022964 0
+0.004030 +0.001800 0
+0.035637 +0.015703 0
+0.006986 +0.003112 0
+0.041856 +0.018422 0
+0.086019 +0.037841 0
+0.062287 +0.027413 0
+0.072345 +0.031818 0
+0.122362 +0.053807 0
+0.106517 +0.046847 0
+0.090476 +0.039782 0
+0.133216 +0.058574 0
-0.067813 -0.029793 0
-0.068040 -0.029894 0
-0.060469 -0.026563 0
-0.065229 -0.028656 0
-0.046526 -0.020434 0
-0.054087 -0.023757 0
-0.028565 -0.012539 0
-0.038109 -0.016734 0
-0.008388 -0.003671 0
-0.018493 -0.008112 0
+0.011610 +0.005117 0
+0.001761 +0.000789 0
+0.029510 +0.012982 0
+0.020915 +0.009206 0
+0.042214 +0.018563 0
+0.036521 +0.016063 0
+0.045811 +0.020143 0
-0.385373 -0.169323 0
-0.394025 -0.173122 0
-0.350524 -0.154011 0
-0.366733 -0.161131 0
-0.345098 -0.151622 0
-0.355157 -0.156038 0
-0.376182 -0.165279 0
-0.378428 -0.166263 0
-0.358528 -0.157516 0
-0.354668 -0.155817 0
-0.331303 -0.145554 0
-0.335482 -0.147387 0
-0.309614 -0.136018 0
-0.307981 -0.135296 0
-0.332849 -0.146227 0
-0.323251 -0.142006 0
-0.299766 -0.131684 0
-0.284961 -0.125175 0
-0.280616 -0.123270 0
-0.273490 -0.120135 0
-0.244959 -0.107596 0
-0.232679 -0.102196 0
-0.260047 -0.114224 0
-0.240708 -0.105724 0
-0.214701 -0.094293 0
-0.191612 -0.084145 0
-0.203574 -0.089404 0
-0.186732 -0.082000 0
-0.157586 -0.069191 0
-0.136849 -0.060076 0
-0.164900 -0.072404 0
-0.138929 -0.060990 0
-0.112010 -0.049158 0
-0.084022 -0.036858 0
-0.108369 -0.047560 0
-0.084498 -0.037067 0
-0.057346 -0.025135 0
-0.031148 -0.013620 0
-0.057457 -0.025182 0
-0.028318 -0.012377 0
-0.002764 -0.001146 0
+0.026736 +0.011818 0
-0.006064 -0.002598 0
+0.021653 +0.009584 0
+0.043992 +0.019400 0
+0.072385 +0.031878 0
+0.050594 +0.022303 0
+0.079724 +0.035104 0
+0.101137 +0.044515 0
+0.129285 +0.056884 0
+0.091287 +0.040184 0
+0.119624 +0.052637 0
+0.134509 +0.059176 0
+0.162114 +0.071308 0
+0.147545 +0.064908 0
+0.174221 +0.076630 0
+0.188677 +0.082982 0
+0.213416 +0.093853 0
+0.172426 +0.075837 0
+0.198728 +0.087396 0
+0.204236 +0.089813 0
+0.228779 +0.100599 0
+0.223493 +0.098279 0
+0.246000 +0.108170 0
+0.251271 +0.110484 0
+0.271266 +0.119271 0
+0.229159 +0.100762 0
+0.251387 +0.110531 0
+0.246323 +0.108301 0
+0.271337 +0.119298 0
-0.305766 -0.134345 0
-0.328369 -0.144274 0
-0.252918 -0.111125 0
-0.280547 -0.123263 0
-0.253044 -0.111176 0
-0.275334 -0.120967 0
-0.303287 -0.133251 0
-0.320165 -0.140664 0
-0.292855 -0.128662 0
-0.304343 -0.133706 0
-0.245441 -0.107831 0
-0.262745 -0.115430 0
-0.231382 -0.101648 0
-0.243641 -0.107030 0
-0.275046 -0.120831 0
-0.280884 -0.123392 0
-0.250468 -0.110025 0
-0.250867 -0.110196 0
-0.211352 -0.092842 0
-0.218311 -0.095894 0
-0.185943 -0.081671 0
-0.187557 -0.082375 0
-0.219665 -0.096484 0
-0.214554 -0.094234 0
-0.183426 -0.080555 0
-0.173264 -0.076085 0
-0.155732 -0.068392 0
-0.152003 -0.066747 0
-0.121297 -0.053256 0
-0.112711 -0.049478 0
-0.142794 -0.062696 0
-0.127983 -0.056183 0
-0.099108 -0.043495 0
-0.080293 -0.035223 0
-0.084486 -0.037077 0
-0.071509 -0.031369 0
-0.046752 -0.020493 0
-0.029466 -0.012892 0
-0.053730 -0.023551 0
-0.031517 -0.013786 0
-0.007989 -0.003449 0
+0.016854 +0.007471 0
-0.008515 -0.003689 0
+0.012486 +0.005545 0
+0.029179 +0.012876 0
+0.052854 +0.023285 0
+0.036765 +0.016218 0
+0.063303 +0.027884 0
+0.078966 +0.034763 0
+0.106423 +0.046832 0
+0.064842 +0.028548 0
+0.090346 +0.039759 0
+0.097325 +0.042821 0
+0.123640 +0.054388 0
+0.117366 +0.051636 0
+0.144958 +0.063764 0
+0.151067 +0.066444 0
+0.178061 +0.078309 0
+0.125450 +0.055178 0
+0.152190 +0.066932 0
+0.148835 +0.065452 0
+0.174973 +0.076941 0
+0.179100 +0.078760 0
+0.204759 +0.090038 0
+0.200545 +0.088181 0
+0.224376 +0.098655 0
+0.166532 +0.073226 0
+0.191219 +0.084077 0
+0.177291 +0.077950 0
+0.214660 +0.094380 0
-0.194407 -0.085417 0
-0.225586 -0.099115 0
-0.131546 -0.057798 0
-0.165188 -0.072578 0
-0.134140 -0.058935 0
-0.163664 -0.071905 0
-0.196324 -0.086256 0
-0.222726 -0.097854 0
-0.191420 -0.084097 0
-0.213297 -0.093706 0
-0.131194 -0.057638 0
-0.157530 -0.069206 0
-0.123997 -0.054472 0
-0.146156 -0.064205 0
-0.180844 -0.079446 0
-0.198284 -0.087104 0
-0.165495 -0.072697 0
-0.178109 -0.078235 0
-0.113477 -0.049847 0
-0.131801 -0.057893 0
-0.100088 -0.043961 0
-0.113382 -0.049796 0
-0.145832 -0.064053 0
-0.153385 -0.067366 0
-0.122286 -0.053703 0
-0.124569 -0.054700 0
-0.083779 -0.036792 0
-0.092177 -0.040476 0
-0.065597 -0.028800 0
-0.068827 -0.030213 0
-0.095667 -0.042003 0
-0.092553 -0.040628 0
-0.067139 -0.029464 0
-0.059252 -0.025992 0
-0.046140 -0.020249 0
-0.044373 -0.019465 0
-0.026023 -0.011407 0
-0.019397 -0.008489 0
-0.037621 -0.016491 0
-0.025326 -0.011082 0
-0.007798 -0.003385 0
+0.008668 +0.003857 0
-0.005905 -0.002566 0
+0.005429 +0.002421 0
+0.013874 +0.006126 0
+0.029521 +0.013008 0
+0.021547 +0.009511 0
+0.041496 +0.018283 0
+0.049382 +0.021743 0
+0.072080 +0.031722 0
+0.032934 +0.014502 0
+0.052131 +0.022944 0
+0.050499 +0.022220 0
+0.072186 +0.031756 0
+0.074745 +0.032887 0
+0.099160 +0.043621 0
+0.096976 +0.042655 0
+0.122350 +0.053809 0
+0.065856 +0.028967 0
+0.089595 +0.039404 0
+0.078550 +0.034544 0
+0.102973 +0.045281 0
+0.115305 +0.050708 0
+0.140741 +0.061889 0
+0.128764 +0.056619 0
+0.153342 +0.067423 0
+0.087731 +0.038577 0
+0.112056 +0.049270 0
+0.092033 +0.040464 0
+0.136128 +0.059852 0
-0.066701 -0.029307 0
-0.100788 -0.044282 0
-0.033655 -0.014787 0
-0.033507 -0.014721 0
-0.069017 -0.030323 0
-0.100181 -0.044014 0
-0.067528 -0.029667 0
-0.096524 -0.042405 0
-0.032200 -0.014146 0
-0.029828 -0.013103 0
-0.063755 -0.028008 0
-0.089447 -0.039293 0
-0.058077 -0.025511 0
-0.080512 -0.035364 0
-0.026666 -0.011713 0
-0.022935 -0.010073 0
-0.050997 -0.022399 0
-0.069255 -0.030416 0
-0.042898 -0.018838 0
-0.056374 -0.024754 0
-0.018791 -0.008251 0
-0.014100 -0.006189 0
-0.033765 -0.014824 0
-0.042238 -0.018541 0
-0.023810 -0.010449 0
-0.027293 -0.011973 0
-0.009152 -0.004015 0
-0.004189 -0.001834 0
-0.013608 -0.005965 0
-0.012196 -0.005338 0
-0.003337 -0.001451 0
+0.002816 +0.001259 0
+0.000799 +0.000358 0
+0.005646 +0.002488 0
+0.006817 +0.003011 0
+0.017435 +0.007684 0
+0.016524 +0.007276 0
+0.031318 +0.013784 0
+0.010236 +0.004506 0
+0.014488 +0.006374 0
+0.025598 +0.011264 0
+0.043761 +0.019252 0
+0.033564 +0.014764 0
+0.054395 +0.023923 0
+0.017973 +0.007905 0
+0.020818 +0.009155 0
+0.040024 +0.017601 0
+0.062682 +0.027564 0
+0.044793 +0.019696 0
+0.068135 +0.029958 0
+0.022638 +0.009954 0
+0.046504 +0.020447 0
+0.327483 +0.143965 0
+0.398267 +0.175067 0
+0.457373 +0.201033 0
+0.497729 +0.218757 0
+0.514284 +0.226019 0
+0.504936 +0.221898 0
+0.471441 +0.207166 0
+0.418043 +0.183691 0
+0.247551 +0.108825 0
+0.310210 +0.136358 0
+0.362280 +0.159235 0
+0.395099 +0.173650 0
+0.409024 +0.179759 0
+0.398101 +0.174949 0
+0.364717 +0.160269 0
+0.314078 +0.138009 0
+0.133847 +0.058840 0
+0.170130 +0.074783 0
+0.197775 +0.086929 0
+0.217673 +0.095669 0
+0.224123 +0.098499 0
+0.216367 +0.095085 0
+0.198812 +0.087365 0
+0.168969 +0.074247 0
+0.289851 +0.127428 0
+0.349407 +0.153603 0
+0.314150 +0.138111 0
+0.363648 +0.159856 0
+0.415424 +0.182609 0
+0.383407 +0.168543 0
+0.429535 +0.188804 0
+0.470519 +0.206812 0
+0.444728 +0.195483 0
+0.480098 +0.211015 0
+0.509004 +0.223712 0
+0.492143 +0.216309 0
+0.509239 +0.223809 0
+0.526718 +0.231483 0
+0.520626 +0.228813 0
+0.512959 +0.225430 0
+0.521743 +0.229283 0
+0.527092 +0.231640 0
+0.491167 +0.215841 0
+0.494658 +0.217368 0
+0.510849 +0.224489 0
+0.447132 +0.196478 0
+0.448298 +0.196985 0
+0.473681 +0.208144 0
+0.385689 +0.169469 0
+0.419155 +0.184174 0
+0.214193 +0.094165 0
+0.292875 +0.128750 0
+0.256072 +0.112577 0
+0.280091 +0.123124 0
+0.362405 +0.159302 0
+0.328829 +0.144549 0
+0.338420 +0.148753 0
+0.420393 +0.184778 0
+0.393575 +0.172997 0
+0.382222 +0.167995 0
+0.459197 +0.201821 0
+0.442796 +0.194619 0
+0.404549 +0.177798 0
+0.474057 +0.208340 0
+0.469957 +0.206544 0
+0.407587 +0.179123 0
+0.462916 +0.203432 0
+0.471916 +0.207393 0
+0.384775 +0.169088 0
+0.427690 +0.187941 0
+0.447557 +0.196677 0
+0.341498 +0.150062 0
+0.372793 +0.163808 0
+0.402281 +0.176771 0
+0.283783 +0.124693 0
+0.339948 +0.149371 0
+0.113783 +0.050022 0
+0.194338 +0.085432 0
+0.166471 +0.073185 0
+0.153108 +0.067304 0
+0.245887 +0.108084 0
+0.221381 +0.097316 0
+0.186470 +0.081963 0
+0.287875 +0.126531 0
+0.268917 +0.118202 0
+0.210587 +0.092557 0
+0.314880 +0.138392 0
+0.304078 +0.133649 0
+0.223495 +0.098225 0
+0.324626 +0.142668 0
+0.322611 +0.141786 0
+0.223383 +0.098170 0
+0.315408 +0.138609 0
+0.323053 +0.141973 0
+0.210682 +0.092584 0
+0.288073 +0.126590 0
+0.304331 +0.133737 0
+0.185933 +0.081703 0
+0.246045 +0.108114 0
+0.269203 +0.118294 0
+0.150504 +0.066131 0
+0.220226 +0.096766 0
+0.069262 +0.030448 0
+0.058431 +0.025688 0
+0.088240 +0.038787 0
+0.079368 +0.034889 0
+0.102492 +0.045049 0
+0.095892 +0.042149 0
+0.112207 +0.049316 0
+0.108292 +0.047596 0
+0.115476 +0.050750 0
+0.114046 +0.050123 0
+0.111970 +0.049206 0
+0.114752 +0.050430 0
+0.102728 +0.045142 0
+0.108117 +0.047512 0
+0.086921 +0.038194 0
+0.095423 +0.041931 0
+0.076918 +0.033797 0
+0.296249 +0.130244 0
+0.322337 +0.141710 0
+0.270861 +0.119082 0
+0.303265 +0.133325 0
+0.308823 +0.135765 0
+0.340076 +0.149501 0
+0.331904 +0.145913 0
+0.355321 +0.156204 0
+0.366624 +0.161169 0
+0.386979 +0.170114 0
+0.345846 +0.152034 0
+0.375571 +0.165098 0
+0.381354 +0.167636 0
+0.409225 +0.179884 0
+0.399726 +0.175713 0
+0.416696 +0.183169 0
+0.430477 +0.189223 0
+0.443839 +0.195093 0
+0.414420 +0.182163 0
+0.439910 +0.193365 0
+0.444080 +0.195194 0
+0.466975 +0.205254 0
+0.458109 +0.201361 0
+0.467824 +0.205628 0
+0.481892 +0.211807 0
+0.488064 +0.214517 0
+0.469462 +0.206343 0
+0.489453 +0.215126 0
+0.489716 +0.215238 0
+0.506822 +0.222753 0
+0.501197 +0.220285 0
+0.504121 +0.221567 0
+0.515485 +0.226557 0
+0.515540 +0.226578 0
+0.504344 +0.221660 0
+0.518493 +0.227876 0
+0.512656 +0.225307 0
+0.524066 +0.230318 0
+0.524374 +0.230457 0
+0.522126 +0.229465 0
+0.527619 +0.231875 0
+0.523626 +0.230117 0
+0.514521 +0.226120 0
+0.523494 +0.230060 0
+0.509835 +0.224054 0
+0.516665 +0.227052 0
+0.525130 +0.230775 0
+0.520028 +0.228529 0
+0.516982 +0.227187 0
+0.511343 +0.224706 0
+0.498891 +0.219238 0
+0.504065 +0.221508 0
+0.482084 +0.211846 0
+0.485814 +0.213482 0
+0.503405 +0.221214 0
+0.497769 +0.218734 0
+0.484764 +0.213017 0
+0.479575 +0.210733 0
+0.459981 +0.202128 0