# vtk DataFile Version 2.0
MyTitle
ASCII
DATASET UNSTRUCTURED_GRID
POINTS 2773 double
0.800000 -0.800000 0.000000
0.800000 0.800000 0.000000
-0.800000 0.800000 0.000000
-0.800000 -0.800000 0.000000
1.414214 -1.414214 0.000000
1.414214 1.414214 0.000000
-1.414214 1.414214 0.000000
-1.414214 -1.414214 0.000000
0.800000 -0.711111 0.000000
0.800000 -0.622222 0.000000
0.800000 -0.533333 0.000000
0.800000 -0.444444 0.000000
0.800000 -0.355556 0.000000
0.800000 -0.266667 0.000000
0.800000 -0.177778 0.000000
0.800000 -0.088889 0.000000
0.800000 -0.000000 0.000000
0.800000 0.088889 0.000000
0.800000 0.177778 0.000000
0.800000 0.266667 0.000000
0.800000 0.355556 0.000000
0.800000 0.444444 0.000000
0.800000 0.533333 0.000000
0.800000 0.622222 0.000000
0.800000 0.711111 0.000000
0.800000 -0.755556 0.000000
0.800000 -0.666667 0.000000
0.800000 -0.577778 0.000000
0.800000 -0.488889 0.000000
0.800000 -0.400000 0.000000
0.800000 -0.311111 0.000000
0.800000 -0.222222 0.000000
0.800000 -0.133333 0.000000
0.800000 -0.044444 0.000000
0.800000 0.044444 0.000000
0.800000 0.133333 0.000000
0.800000 0.222222 0.000000
0.800000 0.311111 0.000000
0.800000 0.400000 0.000000
0.800000 0.488889 0.000000
0.800000 0.577778 0.000000
0.800000 0.666667 0.000000
0.800000 0.755556 0.000000
0.711111 0.800000 0.000000
0.622222 0.800000 0.000000
0.533333 0.800000 0.000000
0.444444 0.800000 0.000000
0.355556 0.800000 0.000000
0.266667 0.800000 0.000000
0.177778 0.800000 0.000000
0.088889 0.800000 0.000000
0.000000 0.800000 0.000000
-0.088889 0.800000 0.000000
-0.177778 0.800000 0.000000
-0.266667 0.800000 0.000000
-0.355556 0.800000 0.000000
-0.444444 0.800000 0.000000
-0.533333 0.800000 0.000000
-0.622222 0.800000 0.000000
-0.711111 0.800000 0.000000
0.755556 0.800000 0.000000
0.666667 0.800000 0.000000
0.577778 0.800000 0.000000
0.488889 0.800000 0.000000
0.400000 0.800000 0.000000
0.311111 0.800000 0.000000
0.222222 0.800000 0.000000
0.133333 0.800000 0.000000
0.044444 0.800000 0.000000
-0.044444 0.800000 0.000000
-0.133333 0.800000 0.000000
-0.222222 0.800000 0.000000
-0.311111 0.800000 0.000000
-0.400000 0.800000 0.000000
-0.488889 0.800000 0.000000
-0.577778 0.800000 0.000000
-0.666667 0.800000 0.000000
-0.755556 0.800000 0.000000
-0.800000 0.711111 0.000000
-0.800000 0.622222 0.000000
-0.800000 0.533333 0.000000
-0.800000 0.444444 0.000000
-0.800000 0.355556 0.000000
-0.800000 0.266667 0.000000
-0.800000 0.177778 0.000000
-0.800000 0.088889 0.000000
-0.800000 0.000000 0.000000
-0.800000 -0.088889 0.000000
-0.800000 -0.177778 0.000000
-0.800000 -0.266667 0.000000
-0.800000 -0.355556 0.000000
-0.800000 -0.444444 0.000000
-0.800000 -0.533333 0.000000
-0.800000 -0.622222 0.000000
-0.800000 -0.711111 0.000000
-0.800000 0.755556 0.000000
-0.800000 0.666667 0.000000
-0.800000 0.577778 0.000000
-0.800000 0.488889 0.000000
-0.800000 0.400000 0.000000
-0.800000 0.311111 0.000000
-0.800000 0.222222 0.000000
-0.800000 0.133333 0.000000
-0.800000 0.044444 0.000000
-0.800000 -0.044444 0.000000
-0.800000 -0.133333 0.000000
-0.800000 -0.222222 0.000000
-0.800000 -0.311111 0.000000
-0.800000 -0.400000 0.000000
-0.800000 -0.488889 0.000000
-0.800000 -0.577778 0.000000
-0.800000 -0.666667 0.000000
-0.800000 -0.755556 0.000000
-0.711111 -0.800000 0.000000
-0.622222 -0.800000 0.000000
-0.533333 -0.800000 0.000000
-0.444444 -0.800000 0.000000
-0.355556 -0.800000 0.000000
-0.266667 -0.800000 0.000000
-0.177778 -0.800000 0.000000
-0.088889 -0.800000 0.000000
-0.000000 -0.800000 0.000000
0.088889 -0.800000 0.000000
0.177778 -0.800000 0.000000
0.266667 -0.800000 0.000000
0.355556 -0.800000 0.000000
0.444444 -0.800000 0.000000
0.533333 -0.800000 0.000000
0.622222 -0.800000 0.000000
0.711111 -0.800000 0.000000
-0.755556 -0.800000 0.000000
-0.666667 -0.800000 0.000000
-0.577778 -0.800000 0.000000
-0.488889 -0.800000 0.000000
-0.400000 -0.800000 0.000000
-0.311111 -0.800000 0.000000
-0.222222 -0.800000 0.000000
-0.133333 -0.800000 0.000000
-0.044444 -0.800000 0.000000
0.044444 -0.800000 0.000000
0.133333 -0.800000 0.000000
0.222222 -0.800000 0.000000
0.311111 -0.800000 0.000000
0.400000 -0.800000 0.000000
0.488889 -0.800000 0.000000
0.577778 -0.800000 0.000000
0.666667 -0.800000 0.000000
0.755556 -0.800000 0.000000
1.532089 -1.285575 0.000000
1.638304 -1.147153 0.000000
1.732051 -1.000000 0.000000
1.812616 -0.845237 0.000000
1.879385 -0.684040 0.000000
1.931852 -0.517638 0.000000
1.969616 -0.347296 0.000000
1.992389 -0.174311 0.000000
2.000000 -0.000000 0.000000
1.992389 0.174311 0.000000
1.969616 0.347296 0.000000
1.931852 0.517638 0.000000
1.879385 0.684040 0.000000
1.812616 0.845237 0.000000
1.732051 1.000000 0.000000
1.638304 1.147153 0.000000
1.532089 1.285575 0.000000
1.474555 -1.351180 0.000000
1.586707 -1.217523 0.000000
1.686783 -1.074599 0.000000
1.774022 -0.923497 0.000000
1.847759 -0.765367 0.000000
1.907434 -0.601412 0.000000
1.952592 -0.432879 0.000000
1.982890 -0.261052 0.000000
1.998096 -0.087239 0.000000
1.998096 0.087239 0.000000
1.982890 0.261052 0.000000
1.952592 0.432879 0.000000
1.907434 0.601412 0.000000
1.847759 0.765367 0.000000
1.774022 0.923497 0.000000
1.686783 1.074599 0.000000
1.586707 1.217523 0.000000
1.474555 1.351180 0.000000
1.285575 1.532089 0.000000
1.147153 1.638304 0.000000
1.000000 1.732051 0.000000
0.845237 1.812616 0.000000
0.684040 1.879385 0.000000
0.517638 1.931852 0.000000
0.347296 1.969616 0.000000
0.174311 1.992389 0.000000
0.000000 2.000000 0.000000
-0.174311 1.992389 0.000000
-0.347296 1.969616 0.000000
-0.517638 1.931852 0.000000
-0.684040 1.879385 0.000000
-0.845237 1.812616 0.000000
-1.000000 1.732051 0.000000
-1.147153 1.638304 0.000000
-1.285575 1.532089 0.000000
1.351180 1.474555 0.000000
1.217523 1.586707 0.000000
1.074599 1.686783 0.000000
0.923497 1.774022 0.000000
0.765367 1.847759 0.000000
0.601412 1.907434 0.000000
0.432879 1.952592 0.000000
0.261052 1.982890 0.000000
0.087239 1.998096 0.000000
-0.087239 1.998096 0.000000
-0.261052 1.982890 0.000000
-0.432879 1.952592 0.000000
-0.601412 1.907434 0.000000
-0.765367 1.847759 0.000000
-0.923497 1.774022 0.000000
-1.074599 1.686783 0.000000
-1.217523 1.586707 0.000000
-1.351180 1.474555 0.000000
-1.532089 1.285575 0.000000
-1.638304 1.147153 0.000000
-1.732051 1.000000 0.000000
-1.812616 0.845237 0.000000
-1.879385 0.684040 0.000000
-1.931852 0.517638 0.000000
-1.969616 0.347296 0.000000
-1.992389 0.174311 0.000000
-2.000000 0.000000 0.000000
-1.992389 -0.174311 0.000000
-1.969616 -0.347296 0.000000
-1.931852 -0.517638 0.000000
-1.879385 -0.684040 0.000000
-1.812616 -0.845237 0.000000
-1.732051 -1.000000 0.000000
-1.638304 -1.147153 0.000000
-1.532089 -1.285575 0.000000
-1.474555 1.351180 0.000000
-1.586707 1.217523 0.000000
-1.686783 1.074599 0.000000
-1.774022 0.923497 0.000000
-1.847759 0.765367 0.000000
-1.907434 0.601412 0.000000
-1.952592 0.432879 0.000000
-1.982890 0.261052 0.000000
-1.998096 0.087239 0.000000
-1.998096 -0.087239 0.000000
-1.982890 -0.261052 0.000000
-1.952592 -0.432879 0.000000
-1.907434 -0.601412 0.000000
-1.847759 -0.765367 0.000000
-1.774022 -0.923497 0.000000
-1.686783 -1.074599 0.000000
-1.586707 -1.217523 0.000000
-1.474555 -1.351180 0.000000
-1.285575 -1.532089 0.000000
-1.147153 -1.638304 0.000000
-1.000000 -1.732051 0.000000
-0.845237 -1.812616 0.000000
-0.684040 -1.879385 0.000000
-0.517638 -1.931852 0.000000
-0.347296 -1.969616 0.000000
-0.174311 -1.992389 0.000000
-0.000000 -2.000000 0.000000
0.174311 -1.992389 0.000000
0.347296 -1.969616 0.000000
0.517638 -1.931852 0.000000
0.684040 -1.879385 0.000000
0.845237 -1.812616 0.000000
1.000000 -1.732051 0.000000
1.147153 -1.638304 0.000000
1.285575 -1.532089 0.000000
-1.351180 -1.474555 0.000000
-1.217523 -1.586707 0.000000
-1.074599 -1.686783 0.000000
-0.923497 -1.774022 0.000000
-0.765367 -1.847759 0.000000
-0.601412 -1.907434 0.000000
-0.432879 -1.952592 0.000000
-0.261052 -1.982890 0.000000
-0.087239 -1.998096 0.000000
0.087239 -1.998096 0.000000
0.261052 -1.982890 0.000000
0.432879 -1.952592 0.000000
0.601412 -1.907434 0.000000
0.765367 -1.847759 0.000000
0.923497 -1.774022 0.000000
1.074599 -1.686783 0.000000
1.217523 -1.586707 0.000000
1.351180 -1.474555 0.000000
0.876777 -0.876777 0.000000
0.953553 -0.953553 0.000000
1.030330 -1.030330 0.000000
1.107107 -1.107107 0.000000
1.183883 -1.183883 0.000000
1.260660 -1.260660 0.000000
1.337437 -1.337437 0.000000
0.838388 -0.838388 0.000000
0.915165 -0.915165 0.000000
0.991942 -0.991942 0.000000
1.068718 -1.068718 0.000000
1.145495 -1.145495 0.000000
1.222272 -1.222272 0.000000
1.299049 -1.299049 0.000000
1.375825 -1.375825 0.000000
0.876777 0.876777 0.000000
0.953553 0.953553 0.000000
1.030330 1.030330 0.000000
1.107107 1.107107 0.000000
1.183883 1.183883 0.000000
1.260660 1.260660 0.000000
1.337437 1.337437 0.000000
0.838388 0.838388 0.000000
0.915165 0.915165 0.000000
0.991942 0.991942 0.000000
1.068718 1.068718 0.000000
1.145495 1.145495 0.000000
1.222272 1.222272 0.000000
1.299049 1.299049 0.000000
1.375825 1.375825 0.000000
-0.876777 0.876777 0.000000
-0.953553 0.953553 0.000000
-1.030330 1.030330 0.000000
-1.107107 1.107107 0.000000
-1.183883 1.183883 0.000000
-1.260660 1.260660 0.000000
-1.337437 1.337437 0.000000
-0.838388 0.838388 0.000000
-0.915165 0.915165 0.000000
-0.991942 0.991942 0.000000
-1.068718 1.068718 0.000000
-1.145495 1.145495 0.000000
-1.222272 1.222272 0.000000
-1.299049 1.299049 0.000000
-1.375825 1.375825 0.000000
-0.876777 -0.876777 0.000000
-0.953553 -0.953553 0.000000
-1.030330 -1.030330 0.000000
-1.107107 -1.107107 0.000000
-1.183883 -1.183883 0.000000
-1.260660 -1.260660 0.000000
-1.337437 -1.337437 0.000000
-0.838388 -0.838388 0.000000
-0.915165 -0.915165 0.000000
-0.991942 -0.991942 0.000000
-1.068718 -1.068718 0.000000
-1.145495 -1.145495 0.000000
-1.222272 -1.222272 0.000000
-1.299049 -1.299049 0.000000
-1.375825 -1.375825 0.000000
1.004570 -0.750138 0.000000
1.046902 -0.541729 0.000000
1.076366 -0.327598 0.000000
1.091686 -0.109645 0.000000
1.091564 0.109637 0.000000
1.076182 0.327573 0.000000
[...]
POINT_DATA 2773
VECTORS sol double
+0.000052 -0.000800 0
-0.000052 +0.000800 0
+0.000052 -0.000800 0
-0.000052 +0.000800 0
+0.000000 +0.000000 0
+0.000000 +0.000000 0
+0.000000 +0.000000 0
+0.000000 +0.000000 0
+0.004246 -0.065895 0
+0.008587 -0.133245 0
+0.012873 -0.199752 0
+0.016905 -0.262329 0
+0.020497 -0.318061 0
+0.023479 -0.364343 0
+0.025713 -0.399007 0
+0.027093 -0.420424 0
+0.027555 -0.427587 0
+0.027076 -0.420157 0
+0.025679 -0.398481 0
+0.023430 -0.363573 0
+0.020433 -0.317068 0
+0.016829 -0.261142 0
+0.012786 -0.198403 0
+0.008492 -0.131773 0
+0.004146 -0.064339 0
+0.002118 -0.032866 0
+0.006410 -0.099474 0
+0.010749 -0.166794 0
+0.014932 -0.231716 0
+0.018767 -0.291220 0
+0.022074 -0.342530 0
+0.024697 -0.383243 0
+0.026515 -0.411450 0
+0.027441 -0.425825 0
+0.027433 -0.425691 0
+0.026489 -0.411052 0
+0.024655 -0.382592 0
+0.022017 -0.341645 0
+0.018697 -0.290126 0
+0.014850 -0.230444 0
+0.010657 -0.165379 0
+0.006312 -0.097954 0
+0.002016 -0.031283 0
-0.004246 +0.065895 0
-0.008587 +0.133246 0
-0.012873 +0.199752 0
-0.016905 +0.262329 0
-0.020497 +0.318061 0
-0.023479 +0.364343 0
-0.025713 +0.399007 0
-0.027093 +0.420424 0
-0.027555 +0.427587 0
-0.027076 +0.420157 0
-0.025679 +0.398481 0
-0.023430 +0.363573 0
-0.020433 +0.317068 0
-0.016829 +0.261142 0
-0.012786 +0.198404 0
-0.008492 +0.131773 0
-0.004146 +0.064339 0
-0.002118 +0.032866 0
-0.006410 +0.099474 0
-0.010749 +0.166794 0
-0.014932 +0.231716 0
-0.018767 +0.291220 0
-0.022074 +0.342529 0
-0.024697 +0.383243 0
-0.026515 +0.411450 0
-0.027441 +0.425825 0
-0.027433 +0.425691 0
-0.026489 +0.411052 0
-0.024655 +0.382592 0
-0.022017 +0.341645 0
-0.018697 +0.290126 0
-0.014850 +0.230444 0
-0.010657 +0.165379 0
-0.006312 +0.097954 0
-0.002016 +0.031283 0
+0.004246 -0.065895 0
+0.008587 -0.133245 0
+0.012873 -0.199752 0
+0.016905 -0.262329 0
+0.020497 -0.318061 0
+0.023479 -0.364343 0
+0.025713 -0.399007 0
+0.027093 -0.420424 0
+0.027555 -0.427587 0
+0.027076 -0.420157 0
+0.025679 -0.398481 0
+0.023430 -0.363573 0
+0.020433 -0.317068 0
+0.016829 -0.261142 0
+0.012786 -0.198403 0
+0.008492 -0.131773 0
+0.004146 -0.064339 0
+0.002118 -0.032866 0
+0.006410 -0.099474 0
+0.010749 -0.166794 0
+0.014932 -0.231716 0
+0.018767 -0.291220 0
+0.022074 -0.342530 0
+0.024697 -0.383243 0
+0.026515 -0.411450 0
+0.027441 -0.425825 0
+0.027433 -0.425691 0
+0.026489 -0.411052 0
+0.024655 -0.382592 0
+0.022017 -0.341645 0
+0.018697 -0.290126 0
+0.014850 -0.230444 0
+0.010657 -0.165379 0
+0.006312 -0.097954 0
+0.002016 -0.031283 0
-0.004246 +0.065895 0
-0.008587 +0.133245 0
-0.012873 +0.199752 0
-0.016905 +0.262329 0
-0.020497 +0.318061 0
-0.023479 +0.364343 0
-0.025713 +0.399007 0
-0.027093 +0.420424 0
-0.027555 +0.427587 0
-0.027076 +0.420157 0
-0.025679 +0.398481 0
-0.023430 +0.363573 0
-0.020433 +0.317068 0
-0.016829 +0.261141 0
-0.012786 +0.198404 0
-0.008492 +0.131773 0
-0.004146 +0.064339 0
-0.002118 +0.032866 0
-0.006410 +0.099474 0
-0.010749 +0.166794 0
-0.014932 +0.231716 0
-0.018767 +0.291220 0
-0.022074 +0.342529 0
-0.024697 +0.383243 0
-0.026515 +0.411450 0
-0.027441 +0.425825 0
-0.027433 +0.425691 0
-0.026489 +0.411052 0
-0.024655 +0.382592 0
-0.022017 +0.341645 0
-0.018697 +0.290126 0
-0.014850 +0.230444 0
-0.010657 +0.165379 0
-0.006312 +0.097954 0
-0.002016 +0.031283 0
+0.000000 +0.000000 0
+0.000000 +0.000000 0
+0.000000 +0.000000 0
+0.000000 +0.000000 0
+0.000000 +0.000000 0
+0.000000 +0.000000 0
+0.000000 +0.000000 0
+0.000000 +0.000000 0
+0.000000 +0.000000 0
+0.000000 +0.000000 0
+0.000000 +0.000000 0
+0.000000 +0.000000 0
+0.000000 +0.000000 0
+0.000000 +0.000000 0
+0.000000 +0.000000 0
+0.000000 +0.000000 0
+0.000000 +0.000000 0
+0.000000 +0.000000 0
+0.000000 +0.000000 0
+0.000000 +0.000000 0
+0.000000 +0.000000 0
+0.000000 +0.000000 0
+0.000000 +0.000000 0
+0.000000 +0.000000 0
+0.000000 +0.000000 0
+0.000000 +0.000000 0
+0.000000 +0.000000 0
+0.000000 +0.000000 0
+0.000000 +0.000000 0
+0.000000 +0.000000 0
+0.000000 +0.000000 0
+0.000000 +0.000000 0
+0.000000 +0.000000 0
+0.000000 +0.000000 0
+0.000000 +0.000000 0
+0.000000 +0.000000 0
+0.000000 +0.000000 0
+0.000000 +0.000000 0
+0.000000 +0.000000 0
+0.000000 +0.000000 0
+0.000000 +0.000000 0
+0.000000 +0.000000 0
+0.000000 +0.000000 0
+0.000000 +0.000000 0
+0.000000 +0.000000 0
+0.000000 +0.000000 0
+0.000000 +0.000000 0
+0.000000 +0.000000 0
+0.000000 +0.000000 0
+0.000000 +0.000000 0
+0.000000 +0.000000 0
+0.000000 +0.000000 0
+0.000000 +0.000000 0
+0.000000 +0.000000 0
+0.000000 +0.000000 0
+0.000000 +0.000000 0
+0.000000 +0.000000 0
+0.000000 +0.000000 0
+0.000000 +0.000000 0
+0.000000 +0.000000 0
+0.000000 +0.000000 0
+0.000000 +0.000000 0
+0.000000 +0.000000 0
+0.000000 +0.000000 0
+0.000000 +0.000000 0
+0.000000 +0.000000 0
+0.000000 +0.000000 0
+0.000000 +0.000000 0
+0.000000 +0.000000 0
+0.000000 +0.000000 0
+0.000000 +0.000000 0
+0.000000 +0.000000 0
+0.000000 +0.000000 0
+0.000000 +0.000000 0
+0.000000 +0.000000 0
+0.000000 +0.000000 0
+0.000000 +0.000000 0
+0.000000 +0.000000 0
+0.000000 +0.000000 0
+0.000000 +0.000000 0
+0.000000 +0.000000 0
+0.000000 +0.000000 0
+0.000000 +0.000000 0
+0.000000 +0.000000 0
+0.000000 +0.000000 0
+0.000000 +0.000000 0
+0.000000 +0.000000 0
+0.000000 +0.000000 0
+0.000000 +0.000000 0
+0.000000 +0.000000 0
+0.000000 +0.000000 0
+0.000000 +0.000000 0
+0.000000 +0.000000 0
+0.000000 +0.000000 0
+0.000000 +0.000000 0
+0.000000 +0.000000 0
+0.000000 +0.000000 0
+0.000000 +0.000000 0
+0.000000 +0.000000 0
+0.000000 +0.000000 0
+0.000000 +0.000000 0
+0.000000 +0.000000 0
+0.000000 +0.000000 0
+0.000000 +0.000000 0
+0.000000 +0.000000 0
+0.000000 +0.000000 0
+0.000000 +0.000000 0
+0.000000 +0.000000 0
+0.000000 +0.000000 0
+0.000000 +0.000000 0
+0.000000 +0.000000 0
+0.000000 +0.000000 0
+0.000000 +0.000000 0
+0.000000 +0.000000 0
+0.000000 +0.000000 0
+0.000000 +0.000000 0
+0.000000 +0.000000 0
+0.000000 +0.000000 0
+0.000000 +0.000000 0
+0.000000 +0.000000 0
+0.000000 +0.000000 0
+0.000000 +0.000000 0
+0.000000 +0.000000 0
+0.000000 +0.000000 0
+0.000000 +0.000000 0
+0.000000 +0.000000 0
+0.000000 +0.000000 0
+0.000000 +0.000000 0
+0.000000 +0.000000 0
+0.000000 +0.000000 0
+0.000000 +0.000000 0
+0.000000 +0.000000 0
+0.000000 +0.000000 0
+0.000000 +0.000000 0
+0.000000 +0.000000 0
+0.000000 +0.000000 0
+0.000000 +0.000000 0
+0.000000 +0.000000 0
+0.000000 +0.000000 0
+0.000000 +0.000000 0
+0.000052 -0.000801 0
+0.000049 -0.000766 0
+0.000045 -0.000696 0
+0.000038 -0.000593 0
+0.000030 -0.000465 0
+0.000020 -0.000318 0
+0.000010 -0.000159 0
+0.000052 -0.000805 0
+0.000051 -0.000788 0
+0.000047 -0.000735 0
+0.000042 -0.000648 0
+0.000034 -0.000533 0
+0.000025 -0.000393 0
+0.000015 -0.000239 0
+0.000005 -0.000079 0
-0.000052 +0.000801 0
-0.000049 +0.000766 0
-0.000045 +0.000696 0
-0.000038 +0.000594 0
-0.000030 +0.000465 0
-0.000020 +0.000318 0
-0.000010 +0.000159 0
-0.000052 +0.000805 0
-0.000051 +0.000788 0
-0.000047 +0.000735 0
-0.000042 +0.000649 0
-0.000034 +0.000532 0
-0.000025 +0.000393 0
-0.000015 +0.000239 0
-0.000005 +0.000079 0
+0.000052 -0.000801 0
+0.000049 -0.000766 0
+0.000045 -0.000696 0
+0.000038 -0.000594 0
+0.000030 -0.000465 0
+0.000020 -0.000317 0
+0.000010 -0.000159 0
+0.000052 -0.000804 0
+0.000051 -0.000788 0
+0.000047 -0.000735 0
+0.000042 -0.000648 0
+0.000034 -0.000532 0
+0.000025 -0.000393 0
+0.000015 -0.000239 0
+0.000005 -0.000079 0
-0.000052 +0.000801 0
-0.000049 +0.000766 0
-0.000045 +0.000696 0
-0.000038 +0.000594 0
-0.000030 +0.000465 0
-0.000020 +0.000318 0
-0.000010 +0.000159 0
-0.000052 +0.000805 0
-0.000051 +0.000788 0
-0.000047 +0.000735 0
-0.000042 +0.000648 0
-0.000034 +0.000533 0
-0.000025 +0.000393 0
-0.000015 +0.000239 0
-0.000005 +0.000079 0
+0.010405 -0.161458 0
+0.021262 -0.329937 0
+0.030309 -0.470331 0
+0.035455 -0.550182 0
+0.035433 -0.549844 0
+0.030250 -0.469404 0
+0.021177 -0.328613 0
+0.010306 -0.159921 0
+0.009426 -0.146265 0
+0.019649 -0.304899 0
+0.028351 -0.439944 0
+0.033170 -0.514723 0
+0.033231 -0.515664 0
+0.028290 -0.438988 0
+0.019571 -0.303692 0
+0.009344 -0.145005 0
+0.005702 -0.088482 0
+0.011933 -0.185167 0
+0.017223 -0.267268 0
+0.020066 -0.311378 0
+0.019873 -0.308383 0
+0.017040 -0.264428 0
+0.011888 -0.184473 0
+0.005662 -0.087867 0
+0.005023 -0.077947 0
+0.009808 -0.152201 0
+0.004785 -0.074260 0
+0.015913 -0.246934 0
+0.019721 -0.306023 0
+0.014868 -0.230710 0
+0.026153 -0.405830 0
+0.027800 -0.431391 0
+0.024103 -0.374028 0
+0.033471 -0.519397 0
+0.032330 -0.501692 0
+0.030586 -0.474620 0
+0.036118 -0.560463 0
+0.032309 -0.501365 0
+0.032907 -0.510633 0
+0.033427 -0.518706 0
+0.027742 -0.430489 0
+0.030545 -0.473981 0
+0.026078 -0.404672 0
+0.019636 -0.304706 0
+0.024045 -0.373127 0
+0.015822 -0.245517 0
+0.009712 -0.150708 0
+0.014781 -0.229365 0
+0.004925 -0.076424 0
+0.004685 -0.072697 0
+0.004477 -0.069479 0
+0.010282 -0.159548 0
+0.004922 -0.076385 0
+0.014564 -0.225998 0
+0.021258 -0.329879 0
+0.015831 -0.245660 0
+0.024313 -0.377277 0
+0.030542 -0.473943 0
+0.026271 -0.407667 0
+0.031382 -0.486967 0
+0.035859 -0.556446 0
+0.033817 -0.524763 0
+0.033764 -0.523944 0
+0.035844 -0.556213 0
+0.036552 -0.567207 0
+0.031385 -0.487024 0
+0.030495 -0.473210 0
+0.033788 -0.524316 0
+0.024301 -0.377098 0
+0.021177 -0.328610 0
+0.026199 -0.406539 0
+0.014487 -0.224809 0
+0.010190 -0.158125 0
+0.015747 -0.244354 0
+0.004397 -0.068230 0
+0.004828 -0.074922 0
+0.002684 -0.041655 0
+0.007877 -0.122237 0
+0.003719 -0.057715 0
+0.008883 -0.137841 0
+0.016494 -0.255947 0
+0.012240 -0.189933 0
+0.014833 -0.230178 0
+0.023830 -0.369782 0
+0.020481 -0.317813 0
+0.018978 -0.294487 0
+0.027900 -0.432940 0
+0.026399 -0.409646 0
+0.020344 -0.315690 0
+0.027894 -0.432851 0
+0.028443 -0.441361 0
+0.018772 -0.291294 0
+0.023778 -0.368984 0
+0.026349 -0.408873 0
+0.014756 -0.228977 0
+0.016426 -0.254897 0
+0.020397 -0.316510 0
+0.008832 -0.137052 0
+0.007815 -0.121265 0
+0.012176 -0.188938 0
+0.002641 -0.040977 0
+0.003655 -0.056721 0
+0.003049 -0.047320 0
+0.001432 -0.022216 0
+0.006352 -0.098573 0
+0.004734 -0.073460 0
+0.009057 -0.140536 0
+0.007813 -0.121241 0
+0.010602 -0.164523 0
+0.010048 -0.155921 0
+0.010558 -0.163833 0
+0.010726 -0.166446 0
+0.009025 -0.140054 0
+0.009992 -0.155052 0
+0.006352 -0.098562 0
+0.007792 -0.120907 0
+0.003016 -0.046795 0
+0.004685 -0.072701 0
+0.001404 -0.021780 0
+0.002367 -0.036730 0
+0.004550 -0.070611 0
+0.002467 -0.038277 0
+0.004945 -0.076729 0
+0.007679 -0.119155 0
+0.010192 -0.158152 0
+0.007275 -0.112888 0
+0.009267 -0.143809 0
+0.012346 -0.191588 0
+0.013975 -0.216852 0
+0.013159 -0.204197 0
+0.015523 -0.240875 0
+0.018625 -0.289012 0
+0.020671 -0.320770 0
+0.017334 -0.268981 0
+0.018451 -0.286314 0
+0.021981 -0.341101 0
+0.022466 -0.348623 0
+0.023780 -0.369012 0
+0.025352 -0.393396 0
+0.028337 -0.439722 0
+0.029317 -0.454928 0
+0.026047 -0.404196 0
+0.025830 -0.400827 0
+0.029311 -0.454830 0
+0.028357 -0.440037 0
+0.032024 -0.496929 0
+0.032320 -0.501527 0
+0.034616 -0.537158 0
+0.034204 -0.530760 0
+0.031591 -0.490218 0
+0.029931 -0.464463 0
+0.032759 -0.508348 0
+0.030453 -0.472559 0
+0.035949 -0.557849 0
+0.034829 -0.540462 0
+0.035938 -0.557679 0
+0.034182 -0.530419 0
+0.032749 -0.508184 0
+0.029912 -0.464161 0
+0.031560 -0.489732 0
+0.028319 -0.439445 0
+0.034583 -0.536641 0
+0.032275 -0.500836 0
+0.031971 -0.496116 0
+0.029257 -0.453999 0
+0.029261 -0.454057 0
+0.025776 -0.399982 0
+0.025989 -0.403292 0
+0.022407 -0.347697 0
+0.028269 -0.438675 0
+0.025282 -0.392321 0
+0.023700 -0.367764 0
+0.020586 -0.319445 0
+0.021910 -0.339985 0
+0.018370 -0.285052 0
+0.017248 -0.267644 0
+0.013888 -0.215513 0
+0.018535 -0.287623 0
+0.015434 -0.239501 0
+0.013064 -0.202727 0
+0.010093 -0.156617 0
+0.012255 -0.190162 0
+0.009172 -0.142324 0
+0.007176 -0.111355 0
+0.004449 -0.069045 0
+0.007579 -0.117611 0
+0.004845 -0.075179 0
+0.002368 -0.036752 0
+0.002265 -0.035145 0
+0.002403 -0.037285 0
+0.005015 -0.077829 0
+0.002174 -0.033733 0
+0.004741 -0.073574 0
+0.006909 -0.107213 0
+0.009942 -0.154284 0
+0.007561 -0.117327 0
+0.010436 -0.161948 0
+0.013053 -0.202554 0
+0.016019 -0.248580 0
+0.011998 -0.186186 0
+0.015343 -0.238092 0
+0.017149 -0.266107 0
+0.020651 -0.320457 0
+0.018584 -0.288378 0
+0.021464 -0.333075 0
+0.023842 -0.369979 0
+0.026469 -0.410730 0
+0.022068 -0.342445 0
+0.025550 -0.396479 0
+0.026455 -0.410525 0
+0.029747 -0.461603 0
+0.028523 -0.442607 0
+0.030731 -0.476870 0
+0.032326 -0.501628 0
+0.033987 -0.527393 0
+0.030025 -0.465910 0
+0.032947 -0.511258 0
+0.032458 -0.503677 0
+0.034906 -0.541656 0
+0.035007 -0.543233 0
+0.036027 -0.559053 0
+0.036386 -0.564629 0
+0.036714 -0.569718 0
+0.033660 -0.522326 0
+0.035570 -0.551958 0
+0.033691 -0.522802 0
+0.034918 -0.541838 0
+0.036379 -0.564513 0
+0.036006 -0.558725 0
+0.034985 -0.542892 0
+0.033946 -0.526755 0
+0.032490 -0.504161 0
+0.032933 -0.511048 0
+0.029994 -0.465432 0
+0.029698 -0.460847 0
+0.032288 -0.501031 0
+0.030673 -0.475975 0
+0.028461 -0.441654 0
+0.026396 -0.409600 0
+0.026421 -0.409996 0
+0.025499 -0.395678 0
+0.022019 -0.341690 0
+0.020572 -0.319226 0
+0.023765 -0.368780 0
+0.021380 -0.331761 0
+0.018501 -0.287096 0
+0.015927 -0.247144 0
+0.017072 -0.264913 0
+0.015264 -0.236855 0
+0.011919 -0.184950 0
+0.009856 -0.152943 0
+0.012964 -0.201178 0
+0.010340 -0.160447 0
+0.007467 -0.115875 0
+0.004918 -0.076314 0
+0.006828 -0.105953 0
+0.004654 -0.072213 0
+0.002094 -0.032502 0
+0.002310 -0.035840 0
+0.001793 -0.027822 0
+0.004134 -0.064144 0
+0.001286 -0.019963 0
+0.003231 -0.050132 0
+0.004180 -0.064856 0
+0.006854 -0.106360 0
+0.005766 -0.089482 0
+0.008731 -0.135491 0
+0.010068 -0.156232 0
+0.013527 -0.209901 0
+0.007316 -0.113525 0
+0.010664 -0.165485 0
+0.010476 -0.162556 0
+0.014356 -0.222776 0
+0.014422 -0.223803 0
+0.018250 -0.283201 0
+0.018580 -0.288311 0
+0.022618 -0.350983 0
+0.013480 -0.209185 0
+0.017838 -0.276802 0
+0.016162 -0.250789 0
+0.020740 -0.321833 0
+0.022287 -0.345847 0
+0.026362 -0.409072 0
+0.025276 -0.392224 0
+0.029190 -0.452961 0
+0.018260 -0.283356 0
+0.022930 -0.355824 0
+0.019698 -0.305668 0
+0.024235 -0.376072 0
+0.027334 -0.424155 0
+0.030845 -0.478638 0
+0.028365 -0.440154 0
+0.031411 -0.487432 0
+0.020390 -0.316407 0
+0.024656 -0.382608 0
+0.020293 -0.314895 0
+0.024146 -0.374686 0
+0.028362 -0.440110 0
+0.030884 -0.479246 0
+0.027305 -0.423716 0
+0.029175 -0.452724 0
+0.019498 -0.302567 0
+0.022810 -0.353957 0
+0.018066 -0.280339 0
+0.020629 -0.320112 0
+0.025225 -0.391435 0
+0.026304 -0.408179 0
+0.022218 -0.344775 0
+0.022580 -0.350395 0
+0.016034 -0.248817 0
+0.017756 -0.275535 0
+0.013421 -0.208257 0
+0.014299 -0.221892 0
+0.018504 -0.287145 0
+0.018177 -0.282062 0
+0.014357 -0.222781 0
+0.013456 -0.208807 0
+0.010427 -0.161803 0
+0.010607 -0.164591 0
+0.007272 -0.112837 0
+0.006803 -0.105560 0
+0.010005 -0.155250 0
+0.008659 -0.134363 0
+0.005702 -0.088487 0
+0.004061 -0.063016 0
+0.004137 -0.064196 0
+0.003177 -0.049292 0
+0.001243 -0.019292 0
+0.001730 -0.026847 0
+0.000684 -0.010608 0
+0.002077 -0.032227 0
+0.000722 -0.011202 0
+0.001533 -0.023786 0
+0.002249 -0.034905 0
+0.004416 -0.068524 0
+0.003933 -0.061036 0
+0.006872 -0.106630 0
+0.002375 -0.036849 0
+0.003181 -0.049354 0
+0.005617 -0.087160 0
+0.009226 -0.143165 0
+0.007184 -0.111482 0
+0.011428 -0.177341 0
+0.003906 -0.060605 0
+0.004521 -0.070158 0
+0.008559 -0.132818 0
+0.013260 -0.205769 0
+0.009694 -0.150431 0
+0.014641 -0.227187 0
+0.005011 -0.077766 0
+0.005285 -0.082004 0
+0.010481 -0.162647 0
+0.015467 -0.240017 0
+0.010827 -0.168007 0
+0.015668 -0.243131 0
+0.005345 -0.082939 0
+0.005262 -0.081657 0
+0.010804 -0.167659 0
+0.015343 -0.238083 0
+0.010431 -0.161861 0
+0.014504 -0.225064 0
+0.004983 -0.077330 0
+0.004506 -0.069917 0
+0.009651 -0.149760 0
+0.013148 -0.204025 0
+0.008533 -0.132412 0
+0.011377 -0.176549 0
+0.003895 -0.060439 0
+0.003180 -0.049351 0
+0.007174 -0.111323 0
+0.009203 -0.142802 0
+0.005588 -0.086718 0
+0.006822 -0.105860 0
+0.002350 -0.036467 0
+0.001516 -0.023522 0
+0.003892 -0.060401 0
+0.004379 -0.067959 0
+0.002218 -0.034416 0
+0.002041 -0.031673 0
+0.000708 -0.010981 0
+0.000660 -0.010246 0
-0.010403 +0.161431 0
-0.021260 +0.329904 0
-0.030305 +0.470256 0
-0.035447 +0.550054 0
-0.035427 +0.549747 0
-0.030253 +0.469460 0
-0.021177 +0.328622 0
-0.010307 +0.159933 0
-0.009418 +0.146149 0
-0.019627 +0.304562 0
-0.028326 +0.439553 0
-0.033234 +0.515713 0
-0.033302 +0.516767 0
-0.028287 +0.438946 0
-0.019560 +0.303532 0
-0.009338 +0.144906 0
-0.005699 +0.088428 0
-0.011924 +0.185040 0
-0.017054 +0.264632 0
-0.020125 +0.312290 0
-0.020110 +0.312062 0
-0.017022 +0.264144 0
-0.011879 +0.184337 0
-0.005653 +0.087717 0
-0.005023 +0.077950 0
-0.009809 +0.152206 0
-0.004786 +0.074271 0
-0.015915 +0.246962 0
-0.019728 +0.306129 0
-0.014872 +0.230785 0
-0.026158 +0.405908 0
-0.027811 +0.431561 0
-0.024112 +0.374164 0
-0.033479 +0.519515 0
-0.032337 +0.501797 0
-0.030596 +0.474783 0
-0.036110 +0.560342 0
-0.032306 +0.501310 0
-0.032902 +0.510562 0
-0.033425 +0.518683 0
-0.027744 +0.430523 0
-0.030544 +0.473973 0
-0.026079 +0.404682 0
-0.019637 +0.304721 0
-0.024033 +0.372939 0
-0.015818 +0.245456 0
-0.009708 +0.150641 0
-0.014774 +0.229261 0
-0.004921 +0.076367 0
-0.004682 +0.072659 0
-0.004478 +0.069487 0
-0.010284 +0.159579 0
-0.004922 +0.076373 0
-0.014575 +0.226172 0
-0.021266 +0.329993 0
-0.015836 +0.245738 0
-0.024333 +0.377584 0
-0.030550 +0.474066 0
-0.026279 +0.407789 0
-0.031408 +0.487378 0
-0.035869 +0.556599 0
-0.033825 +0.524885 0
-0.033904 +0.526109 0
-0.035851 +0.556321 0
-0.036564 +0.567393 0
-0.031422 +0.487602 0
-0.030495 +0.473216 0
-0.033787 +0.524292 0
-0.024296 +0.377021 0
-0.021191 +0.328829 0
-0.026196 +0.406500 0
-0.014496 +0.224950 0
-0.010192 +0.158154 0
-0.015747 +0.244356 0
-0.004397 +0.068237 0
-0.004828 +0.074923 0
-0.002682 +0.041618 0
-0.007874 +0.122185 0
-0.003719 +0.057706 0
-0.008865 +0.137570 0
-0.016488 +0.255848 0
-0.012234 +0.189845 0
-0.014810 +0.229823 0
-0.023803 +0.369360 0
-0.020465 +0.317571 0
-0.019052 +0.295636 0
-0.027959 +0.433865 0
-0.026408 +0.409793 0
-0.020594 +0.319567 0
-0.027955 +0.433801 0
-0.028547 +0.442976 0
-0.019026 +0.295234 0
-0.023754 +0.368602 0
-0.026381 +0.409373 0
-0.014773 +0.229249 0
-0.016425 +0.254884 0
-0.020405 +0.316634 0
-0.008832 +0.137052 0
-0.007812 +0.121224 0
-0.012173 +0.188897 0
-0.002641 +0.040975 0
-0.003655 +0.056715 0
-0.003056 +0.047422 0
-0.001434 +0.022245 0
-0.006373 +0.098886 0
-0.004748 +0.073674 0
-0.009072 +0.140772 0
-0.007834 +0.121567 0
-0.010637 +0.165064 0
-0.010053 +0.155994 0
-0.010629 +0.164943 0
-0.010780 +0.167273 0
-0.009055 +0.140517 0
-0.010038 +0.155774 0
-0.006338 +0.098351 0
-0.007813 +0.121237 0
-0.003021 +0.046874 0
-0.004695 +0.072851 0
-0.001408 +0.021851 0
-0.002367 +0.036737 0
-0.004551 +0.070618 0
-0.002467 +0.038280 0
-0.004945 +0.076736 0
-0.007677 +0.119135 0
-0.010190 +0.158128 0
-0.007275 +0.112896 0
-0.009268 +0.143812 0
-0.012349 +0.191628 0
-0.013978 +0.216903 0
-0.013160 +0.204215 0
-0.015527 +0.240940 0
-0.018624 +0.288996 0
-0.020671 +0.320765 0
-0.017340 +0.269072 0
-0.018455 +0.286384 0
-0.021989 +0.341221 0
-0.022472 +0.348711 0
-0.023782 +0.369042 0
-0.025360 +0.393527 0
-0.028337 +0.439719 0
-0.029316 +0.454916 0
-0.026057 +0.404350 0
-0.025837 +0.400934 0
-0.029321 +0.454997 0
-0.028364 +0.440138 0
-0.032025 +0.496952 0
-0.032330 +0.501691 0
-0.034616 +0.537153 0
-0.034199 +0.530688 0
-0.031600 +0.490353 0
-0.029935 +0.464528 0
-0.032761 +0.508367 0
-0.030450 +0.472516 0
-0.035941 +0.557723 0
-0.034821 +0.540332 0
-0.035931 +0.557569 0
-0.034175 +0.530318 0
-0.032745 +0.508122 0
-0.029910 +0.464128 0
-0.031558 +0.489701 0
-0.028319 +0.439441 0
-0.034579 +0.536581 0
-0.032274 +0.500818 0
-0.031972 +0.496131 0
-0.029261 +0.454065 0
-0.029262 +0.454070 0
-0.025777 +0.400003 0
-0.025984 +0.403212 0
-0.022399 +0.347576 0
-0.028272 +0.438709 0
-0.025279 +0.392264 0
-0.023700 +0.367771 0
-0.020587 +0.319459 0
-0.021904 +0.339900 0
-0.018370 +0.285061 0
-0.017245 +0.267599 0
-0.013884 +0.215444 0
-0.018535 +0.287614 0