# vtk DataFile Version 2.0
MyTitle
ASCII
DATASET UNSTRUCTURED_GRID
POINTS 2773 double
0.800000 -0.800000 0.000000
0.800000 0.800000 0.000000
-0.800000 0.800000 0.000000
-0.800000 -0.800000 0.000000
1.414214 -1.414214 0.000000
1.414214 1.414214 0.000000
-1.414214 1.414214 0.000000
-1.414214 -1.414214 0.000000
0.800000 -0.711111 0.000000
0.800000 -0.622222 0.000000
0.800000 -0.533333 0.000000
0.800000 -0.444444 0.000000
0.800000 -0.355556 0.000000
0.800000 -0.266667 0.000000
0.800000 -0.177778 0.000000
0.800000 -0.088889 0.000000
0.800000 -0.000000 0.000000
0.800000 0.088889 0.000000
0.800000 0.177778 0.000000
0.800000 0.266667 0.000000
0.800000 0.355556 0.000000
0.800000 0.444444 0.000000
0.800000 0.533333 0.000000
0.800000 0.622222 0.000000
0.800000 0.711111 0.000000
0.800000 -0.755556 0.000000
0.800000 -0.666667 0.000000
0.800000 -0.577778 0.000000
0.800000 -0.488889 0.000000
0.800000 -0.400000 0.000000
0.800000 -0.311111 0.000000
0.800000 -0.222222 0.000000
0.800000 -0.133333 0.000000
0.800000 -0.044444 0.000000
0.800000 0.044444 0.000000
0.800000 0.133333 0.000000
0.800000 0.222222 0.000000
0.800000 0.311111 0.000000
0.800000 0.400000 0.000000
0.800000 0.488889 0.000000
0.800000 0.577778 0.000000
0.800000 0.666667 0.000000
0.800000 0.755556 0.000000
0.711111 0.800000 0.000000
0.622222 0.800000 0.000000
0.533333 0.800000 0.000000
0.444444 0.800000 0.000000
0.355556 0.800000 0.000000
0.266667 0.800000 0.000000
0.177778 0.800000 0.000000
0.088889 0.800000 0.000000
0.000000 0.800000 0.000000
-0.088889 0.800000 0.000000
-0.177778 0.800000 0.000000
-0.266667 0.800000 0.000000
-0.355556 0.800000 0.000000
-0.444444 0.800000 0.000000
-0.533333 0.800000 0.000000
-0.622222 0.800000 0.000000
-0.711111 0.800000 0.000000
0.755556 0.800000 0.000000
0.666667 0.800000 0.000000
0.577778 0.800000 0.000000
0.488889 0.800000 0.000000
0.400000 0.800000 0.000000
0.311111 0.800000 0.000000
0.222222 0.800000 0.000000
0.133333 0.800000 0.000000
0.044444 0.800000 0.000000
-0.044444 0.800000 0.000000
-0.133333 0.800000 0.000000
-0.222222 0.800000 0.000000
-0.311111 0.800000 0.000000
-0.400000 0.800000 0.000000
-0.488889 0.800000 0.000000
-0.577778 0.800000 0.000000
-0.666667 0.800000 0.000000
-0.755556 0.800000 0.000000
-0.800000 0.711111 0.000000
-0.800000 0.622222 0.000000
-0.800000 0.533333 0.000000
-0.800000 0.444444 0.000000
-0.800000 0.355556 0.000000
-0.800000 0.266667 0.000000
-0.800000 0.177778 0.000000
-0.800000 0.088889 0.000000
-0.800000 0.000000 0.000000
-0.800000 -0.088889 0.000000
-0.800000 -0.177778 0.000000
-0.800000 -0.266667 0.000000
-0.800000 -0.355556 0.000000
-0.800000 -0.444444 0.000000
-0.800000 -0.533333 0.000000
-0.800000 -0.622222 0.000000
-0.800000 -0.711111 0.000000
-0.800000 0.755556 0.000000
-0.800000 0.666667 0.000000
-0.800000 0.577778 0.000000
-0.800000 0.488889 0.000000
-0.800000 0.400000 0.000000
-0.800000 0.311111 0.000000
-0.800000 0.222222 0.000000
-0.800000 0.133333 0.000000
-0.800000 0.044444 0.000000
-0.800000 -0.044444 0.000000
-0.800000 -0.133333 0.000000
-0.800000 -0.222222 0.000000
-0.800000 -0.311111 0.000000
-0.800000 -0.400000 0.000000
-0.800000 -0.488889 0.000000
-0.800000 -0.577778 0.000000
-0.800000 -0.666667 0.000000
-0.800000 -0.755556 0.000000
-0.711111 -0.800000 0.000000
-0.622222 -0.800000 0.000000
-0.533333 -0.800000 0.000000
-0.444444 -0.800000 0.000000
-0.355556 -0.800000 0.000000
-0.266667 -0.800000 0.000000
-0.177778 -0.800000 0.000000
-0.088889 -0.800000 0.000000
-0.000000 -0.800000 0.000000
0.088889 -0.800000 0.000000
0.177778 -0.800000 0.000000
0.266667 -0.800000 0.000000
0.355556 -0.800000 0.000000
0.444444 -0.800000 0.000000
0.533333 -0.800000 0.000000
0.622222 -0.800000 0.000000
0.711111 -0.800000 0.000000
-0.755556 -0.800000 0.000000
-0.666667 -0.800000 0.000000
-0.577778 -0.800000 0.000000
-0.488889 -0.800000 0.000000
-0.400000 -0.800000 0.000000
-0.311111 -0.800000 0.000000
-0.222222 -0.800000 0.000000
-0.133333 -0.800000 0.000000
-0.044444 -0.800000 0.000000
0.044444 -0.800000 0.000000
0.133333 -0.800000 0.000000
0.222222 -0.800000 0.000000
0.311111 -0.800000 0.000000
0.400000 -0.800000 0.000000
0.488889 -0.800000 0.000000
0.577778 -0.800000 0.000000
0.666667 -0.800000 0.000000
0.755556 -0.800000 0.000000
1.532089 -1.285575 0.000000
1.638304 -1.147153 0.000000
1.732051 -1.000000 0.000000
1.812616 -0.845237 0.000000
1.879385 -0.684040 0.000000
1.931852 -0.517638 0.000000
1.969616 -0.347296 0.000000
1.992389 -0.174311 0.000000
2.000000 -0.000000 0.000000
1.992389 0.174311 0.000000
1.969616 0.347296 0.000000
1.931852 0.517638 0.000000
1.879385 0.684040 0.000000
1.812616 0.845237 0.000000
1.732051 1.000000 0.000000
1.638304 1.147153 0.000000
1.532089 1.285575 0.000000
1.474555 -1.351180 0.000000
1.586707 -1.217523 0.000000
1.686783 -1.074599 0.000000
1.774022 -0.923497 0.000000
1.847759 -0.765367 0.000000
1.907434 -0.601412 0.000000
1.952592 -0.432879 0.000000
1.982890 -0.261052 0.000000
1.998096 -0.087239 0.000000
1.998096 0.087239 0.000000
1.982890 0.261052 0.000000
1.952592 0.432879 0.000000
1.907434 0.601412 0.000000
1.847759 0.765367 0.000000
1.774022 0.923497 0.000000
1.686783 1.074599 0.000000
1.586707 1.217523 0.000000
1.474555 1.351180 0.000000
1.285575 1.532089 0.000000
1.147153 1.638304 0.000000
1.000000 1.732051 0.000000
0.845237 1.812616 0.000000
0.684040 1.879385 0.000000
0.517638 1.931852 0.000000
0.347296 1.969616 0.000000
0.174311 1.992389 0.000000
0.000000 2.000000 0.000000
-0.174311 1.992389 0.000000
-0.347296 1.969616 0.000000
-0.517638 1.931852 0.000000
-0.684040 1.879385 0.000000
-0.845237 1.812616 0.000000
-1.000000 1.732051 0.000000
-1.147153 1.638304 0.000000
-1.285575 1.532089 0.000000
1.351180 1.474555 0.000000
1.217523 1.586707 0.000000
1.074599 1.686783 0.000000
0.923497 1.774022 0.000000
0.765367 1.847759 0.000000
0.601412 1.907434 0.000000
0.432879 1.952592 0.000000
0.261052 1.982890 0.000000
0.087239 1.998096 0.000000
-0.087239 1.998096 0.000000
-0.261052 1.982890 0.000000
-0.432879 1.952592 0.000000
-0.601412 1.907434 0.000000
-0.765367 1.847759 0.000000
-0.923497 1.774022 0.000000
-1.074599 1.686783 0.000000
-1.217523 1.586707 0.000000
-1.351180 1.474555 0.000000
-1.532089 1.285575 0.000000
-1.638304 1.147153 0.000000
-1.732051 1.000000 0.000000
-1.812616 0.845237 0.000000
-1.879385 0.684040 0.000000
-1.931852 0.517638 0.000000
-1.969616 0.347296 0.000000
-1.992389 0.174311 0.000000
-2.000000 0.000000 0.000000
-1.992389 -0.174311 0.000000
-1.969616 -0.347296 0.000000
-1.931852 -0.517638 0.000000
-1.879385 -0.684040 0.000000
-1.812616 -0.845237 0.000000
-1.732051 -1.000000 0.000000
-1.638304 -1.147153 0.000000
-1.532089 -1.285575 0.000000
-1.474555 1.351180 0.000000
-1.586707 1.217523 0.000000
-1.686783 1.074599 0.000000
-1.774022 0.923497 0.000000
-1.847759 0.765367 0.000000
-1.907434 0.601412 0.000000
-1.952592 0.432879 0.000000
-1.982890 0.261052 0.000000
-1.998096 0.087239 0.000000
-1.998096 -0.087239 0.000000
-1.982890 -0.261052 0.000000
-1.952592 -0.432879 0.000000
-1.907434 -0.601412 0.000000
-1.847759 -0.765367 0.000000
-1.774022 -0.923497 0.000000
-1.686783 -1.074599 0.000000
-1.586707 -1.217523 0.000000
-1.474555 -1.351180 0.000000
-1.285575 -1.532089 0.000000
-1.147153 -1.638304 0.000000
-1.000000 -1.732051 0.000000
-0.845237 -1.812616 0.000000
-0.684040 -1.879385 0.000000
-0.517638 -1.931852 0.000000
-0.347296 -1.969616 0.000000
-0.174311 -1.992389 0.000000
-0.000000 -2.000000 0.000000
0.174311 -1.992389 0.000000
0.347296 -1.969616 0.000000
0.517638 -1.931852 0.000000
0.684040 -1.879385 0.000000
0.845237 -1.812616 0.000000
1.000000 -1.732051 0.000000
1.147153 -1.638304 0.000000
1.285575 -1.532089 0.000000
-1.351180 -1.474555 0.000000
-1.217523 -1.586707 0.000000
-1.074599 -1.686783 0.000000
-0.923497 -1.774022 0.000000
-0.765367 -1.847759 0.000000
-0.601412 -1.907434 0.000000
-0.432879 -1.952592 0.000000
-0.261052 -1.982890 0.000000
-0.087239 -1.998096 0.000000
0.087239 -1.998096 0.000000
0.261052 -1.982890 0.000000
0.432879 -1.952592 0.000000
0.601412 -1.907434 0.000000
0.765367 -1.847759 0.000000
0.923497 -1.774022 0.000000
1.074599 -1.686783 0.000000
1.217523 -1.586707 0.000000
1.351180 -1.474555 0.000000
0.876777 -0.876777 0.000000
0.953553 -0.953553 0.000000
1.030330 -1.030330 0.000000
1.107107 -1.107107 0.000000
1.183883 -1.183883 0.000000
1.260660 -1.260660 0.000000
1.337437 -1.337437 0.000000
0.838388 -0.838388 0.000000
0.915165 -0.915165 0.000000
0.991942 -0.991942 0.000000
1.068718 -1.068718 0.000000
1.145495 -1.145495 0.000000
1.222272 -1.222272 0.000000
1.299049 -1.299049 0.000000
1.375825 -1.375825 0.000000
0.876777 0.876777 0.000000
0.953553 0.953553 0.000000
1.030330 1.030330 0.000000
1.107107 1.107107 0.000000
1.183883 1.183883 0.000000
1.260660 1.260660 0.000000
1.337437 1.337437 0.000000
0.838388 0.838388 0.000000
0.915165 0.915165 0.000000
0.991942 0.991942 0.000000
1.068718 1.068718 0.000000
1.145495 1.145495 0.000000
1.222272 1.222272 0.000000
1.299049 1.299049 0.000000
1.375825 1.375825 0.000000
-0.876777 0.876777 0.000000
-0.953553 0.953553 0.000000
-1.030330 1.030330 0.000000
-1.107107 1.107107 0.000000
-1.183883 1.183883 0.000000
-1.260660 1.260660 0.000000
-1.337437 1.337437 0.000000
-0.838388 0.838388 0.000000
-0.915165 0.915165 0.000000
-0.991942 0.991942 0.000000
-1.068718 1.068718 0.000000
-1.145495 1.145495 0.000000
-1.222272 1.222272 0.000000
-1.299049 1.299049 0.000000
-1.375825 1.375825 0.000000
-0.876777 -0.876777 0.000000
-0.953553 -0.953553 0.000000
-1.030330 -1.030330 0.000000
-1.107107 -1.107107 0.000000
-1.183883 -1.183883 0.000000
-1.260660 -1.260660 0.000000
-1.337437 -1.337437 0.000000
-0.838388 -0.838388 0.000000
-0.915165 -0.915165 0.000000
-0.991942 -0.991942 0.000000
-1.068718 -1.068718 0.000000
-1.145495 -1.145495 0.000000
-1.222272 -1.222272 0.000000
-1.299049 -1.299049 0.000000
-1.375825 -1.375825 0.000000
1.004570 -0.750138 0.000000
1.046902 -0.541729 0.000000
1.076366 -0.327598 0.000000
1.091686 -0.109645 0.000000
1.091564 0.109637 0.000000
1.076182 0.327573 0.000000
[...]
POINT_DATA 2773
VECTORS sol double
+0.107479 -0.306006 0
+0.149366 -0.424977 0
-0.107479 +0.306006 0
-0.149366 +0.424977 0
+0.000000 +0.000000 0
+0.000000 +0.000000 0
+0.000000 +0.000000 0
+0.000000 +0.000000 0
+0.118668 -0.337844 0
+0.129514 -0.368705 0
+0.139849 -0.398109 0
+0.149505 -0.425576 0
+0.158317 -0.450643 0
+0.166133 -0.472869 0
+0.172807 -0.491847 0
+0.178212 -0.507211 0
+0.182236 -0.518645 0
+0.184789 -0.525893 0
+0.185803 -0.528760 0
+0.185233 -0.527120 0
+0.183060 -0.520921 0
+0.179294 -0.510187 0
+0.173967 -0.495015 0
+0.167142 -0.475580 0
+0.158905 -0.452130 0
+0.113104 -0.322013 0
+0.124143 -0.353423 0
+0.134755 -0.383616 0
+0.144771 -0.412111 0
+0.154026 -0.438436 0
+0.162358 -0.462136 0
+0.169620 -0.482787 0
+0.175675 -0.500001 0
+0.180402 -0.513436 0
+0.183701 -0.522806 0
+0.185492 -0.527883 0
+0.185717 -0.528507 0
+0.184347 -0.524590 0
+0.181374 -0.516115 0
+0.176821 -0.503145 0
+0.170736 -0.485814 0
+0.163192 -0.464336 0
+0.154289 -0.438990 0
+0.145998 -0.415382 0
+0.139555 -0.397036 0
+0.130193 -0.370386 0
+0.118142 -0.336082 0
+0.103697 -0.294965 0
+0.087211 -0.248040 0
+0.069086 -0.196454 0
+0.049766 -0.141466 0
+0.029719 -0.084412 0
+0.009433 -0.026677 0
-0.010604 +0.030345 0
-0.029910 +0.085287 0
-0.048025 +0.136838 0
-0.064522 +0.183782 0
-0.079016 +0.225025 0
-0.091176 +0.259625 0
-0.100731 +0.286810 0
+0.148073 -0.421294 0
+0.143153 -0.407281 0
+0.135227 -0.384715 0
+0.124488 -0.354144 0
+0.111199 -0.316318 0
+0.095686 -0.272161 0
+0.078327 -0.222755 0
+0.059547 -0.169304 0
+0.039803 -0.113111 0
+0.019575 -0.055542 0
-0.000648 +0.002011 0
-0.020378 +0.058161 0
-0.039145 +0.111567 0
-0.056502 +0.160960 0
-0.072042 +0.205181 0
-0.085407 +0.243210 0
-0.096294 +0.274187 0
-0.104467 +0.297437 0
-0.118668 +0.337844 0
-0.129514 +0.368705 0
-0.139849 +0.398109 0
-0.149505 +0.425576 0
-0.158317 +0.450643 0
-0.166133 +0.472869 0
-0.172807 +0.491847 0
-0.178212 +0.507211 0
-0.182236 +0.518645 0
-0.184789 +0.525893 0
-0.185803 +0.528760 0
-0.185233 +0.527120 0
-0.183060 +0.520921 0
-0.179294 +0.510186 0
-0.173967 +0.495015 0
-0.167142 +0.475580 0
-0.158904 +0.452129 0
-0.113104 +0.322013 0
-0.124143 +0.353423 0
-0.134755 +0.383616 0
-0.144771 +0.412111 0
-0.154026 +0.438436 0
-0.162358 +0.462136 0
-0.169620 +0.482787 0
-0.175675 +0.500001 0
-0.180402 +0.513436 0
-0.183701 +0.522806 0
-0.185492 +0.527883 0
-0.185717 +0.528507 0
-0.184347 +0.524590 0
-0.181374 +0.516115 0
-0.176822 +0.503145 0
-0.170736 +0.485814 0
-0.163192 +0.464336 0
-0.154289 +0.438990 0
-0.145998 +0.415382 0
-0.139555 +0.397036 0
-0.130193 +0.370386 0
-0.118142 +0.336082 0
-0.103697 +0.294965 0
-0.087211 +0.248040 0
-0.069086 +0.196454 0
-0.049766 +0.141466 0
-0.029719 +0.084412 0
-0.009433 +0.026677 0
+0.010604 -0.030345 0
+0.029910 -0.085287 0
+0.048025 -0.136838 0
+0.064522 -0.183782 0
+0.079016 -0.225025 0
+0.091176 -0.259625 0
+0.100731 -0.286810 0
-0.148073 +0.421294 0
-0.143153 +0.407281 0
-0.135227 +0.384715 0
-0.124488 +0.354144 0
-0.111199 +0.316318 0
-0.095686 +0.272161 0
-0.078327 +0.222755 0
-0.059547 +0.169304 0
-0.039803 +0.113111 0
-0.019575 +0.055542 0
+0.000648 -0.002011 0
+0.020378 -0.058161 0
+0.039145 -0.111567 0
+0.056502 -0.160960 0
+0.072042 -0.205181 0
+0.085407 -0.243210 0
+0.096294 -0.274187 0
+0.104467 -0.297437 0
+0.000000 +0.000000 0
+0.000000 +0.000000 0
+0.000000 +0.000000 0
+0.000000 +0.000000 0
+0.000000 +0.000000 0
+0.000000 +0.000000 0
+0.000000 +0.000000 0
+0.000000 +0.000000 0
+0.000000 +0.000000 0
+0.000000 +0.000000 0
+0.000000 +0.000000 0
+0.000000 +0.000000 0
+0.000000 +0.000000 0
+0.000000 +0.000000 0
+0.000000 +0.000000 0
+0.000000 +0.000000 0
+0.000000 +0.000000 0
+0.000000 +0.000000 0
+0.000000 +0.000000 0
+0.000000 +0.000000 0
+0.000000 +0.000000 0
+0.000000 +0.000000 0
+0.000000 +0.000000 0
+0.000000 +0.000000 0
+0.000000 +0.000000 0
+0.000000 +0.000000 0
+0.000000 +0.000000 0
+0.000000 +0.000000 0
+0.000000 +0.000000 0
+0.000000 +0.000000 0
+0.000000 +0.000000 0
+0.000000 +0.000000 0
+0.000000 +0.000000 0
+0.000000 +0.000000 0
+0.000000 +0.000000 0
+0.000000 +0.000000 0
+0.000000 +0.000000 0
+0.000000 +0.000000 0
+0.000000 +0.000000 0
+0.000000 +0.000000 0
+0.000000 +0.000000 0
+0.000000 +0.000000 0
+0.000000 +0.000000 0
+0.000000 +0.000000 0
+0.000000 +0.000000 0
+0.000000 +0.000000 0
+0.000000 +0.000000 0
+0.000000 +0.000000 0
+0.000000 +0.000000 0
+0.000000 +0.000000 0
+0.000000 +0.000000 0
+0.000000 +0.000000 0
+0.000000 +0.000000 0
+0.000000 +0.000000 0
+0.000000 +0.000000 0
+0.000000 +0.000000 0
+0.000000 +0.000000 0
+0.000000 +0.000000 0
+0.000000 +0.000000 0
+0.000000 +0.000000 0
+0.000000 +0.000000 0
+0.000000 +0.000000 0
+0.000000 +0.000000 0
+0.000000 +0.000000 0
+0.000000 +0.000000 0
+0.000000 +0.000000 0
+0.000000 +0.000000 0
+0.000000 +0.000000 0
+0.000000 +0.000000 0
+0.000000 +0.000000 0
+0.000000 +0.000000 0
+0.000000 +0.000000 0
+0.000000 +0.000000 0
+0.000000 +0.000000 0
+0.000000 +0.000000 0
+0.000000 +0.000000 0
+0.000000 +0.000000 0
+0.000000 +0.000000 0
+0.000000 +0.000000 0
+0.000000 +0.000000 0
+0.000000 +0.000000 0
+0.000000 +0.000000 0
+0.000000 +0.000000 0
+0.000000 +0.000000 0
+0.000000 +0.000000 0
+0.000000 +0.000000 0
+0.000000 +0.000000 0
+0.000000 +0.000000 0
+0.000000 +0.000000 0
+0.000000 +0.000000 0
+0.000000 +0.000000 0
+0.000000 +0.000000 0
+0.000000 +0.000000 0
+0.000000 +0.000000 0
+0.000000 +0.000000 0
+0.000000 +0.000000 0
+0.000000 +0.000000 0
+0.000000 +0.000000 0
+0.000000 +0.000000 0
+0.000000 +0.000000 0
+0.000000 +0.000000 0
+0.000000 +0.000000 0
+0.000000 +0.000000 0
+0.000000 +0.000000 0
+0.000000 +0.000000 0
+0.000000 +0.000000 0
+0.000000 +0.000000 0
+0.000000 +0.000000 0
+0.000000 +0.000000 0
+0.000000 +0.000000 0
+0.000000 +0.000000 0
+0.000000 +0.000000 0
+0.000000 +0.000000 0
+0.000000 +0.000000 0
+0.000000 +0.000000 0
+0.000000 +0.000000 0
+0.000000 +0.000000 0
+0.000000 +0.000000 0
+0.000000 +0.000000 0
+0.000000 +0.000000 0
+0.000000 +0.000000 0
+0.000000 +0.000000 0
+0.000000 +0.000000 0
+0.000000 +0.000000 0
+0.000000 +0.000000 0
+0.000000 +0.000000 0
+0.000000 +0.000000 0
+0.000000 +0.000000 0
+0.000000 +0.000000 0
+0.000000 +0.000000 0
+0.000000 +0.000000 0
+0.000000 +0.000000 0
+0.000000 +0.000000 0
+0.000000 +0.000000 0
+0.000000 +0.000000 0
+0.000000 +0.000000 0
+0.000000 +0.000000 0
+0.000000 +0.000000 0
+0.000000 +0.000000 0
+0.000000 +0.000000 0
+0.100753 -0.286856 0
+0.091168 -0.259565 0
+0.079112 -0.225241 0
+0.065056 -0.185223 0
+0.049534 -0.141029 0
+0.033120 -0.094296 0
+0.016411 -0.046724 0
+0.104495 -0.297510 0
+0.096297 -0.274168 0
+0.085422 -0.243206 0
+0.072303 -0.205855 0
+0.057444 -0.163550 0
+0.041402 -0.117877 0
+0.024766 -0.070511 0
+0.008131 -0.023149 0
+0.140019 -0.398383 0
+0.126697 -0.360481 0
+0.109943 -0.312812 0
+0.090410 -0.257235 0
+0.068838 -0.195859 0
+0.046027 -0.130957 0
+0.022807 -0.064890 0
+0.145219 -0.413179 0
+0.133825 -0.380761 0
+0.118712 -0.337761 0
+0.100480 -0.285888 0
+0.079831 -0.227136 0
+0.057537 -0.163706 0
+0.034417 -0.097925 0
+0.011299 -0.032149 0
-0.100753 +0.286856 0
-0.091168 +0.259565 0
-0.079112 +0.225241 0
-0.065056 +0.185223 0
-0.049534 +0.141029 0
-0.033120 +0.094296 0
-0.016411 +0.046724 0
-0.104495 +0.297510 0
-0.096297 +0.274168 0
-0.085422 +0.243206 0
-0.072303 +0.205855 0
-0.057444 +0.163550 0
-0.041402 +0.117877 0
-0.024766 +0.070511 0
-0.008131 +0.023149 0
-0.140019 +0.398383 0
-0.126697 +0.360481 0
-0.109943 +0.312811 0
-0.090410 +0.257235 0
-0.068838 +0.195860 0
-0.046027 +0.130958 0
-0.022807 +0.064889 0
-0.145219 +0.413179 0
-0.133825 +0.380761 0
-0.118712 +0.337761 0
-0.100480 +0.285888 0
-0.079831 +0.227136 0
-0.057537 +0.163706 0
-0.034417 +0.097925 0
-0.011299 +0.032149 0
+0.118537 -0.337450 0
+0.144169 -0.410382 0
+0.165576 -0.471280 0
+0.180190 -0.512838 0
+0.186199 -0.529906 0
+0.182884 -0.520441 0
+0.170736 -0.485842 0
+0.151415 -0.430835 0
+0.089752 -0.255504 0
+0.112500 -0.320231 0
+0.131351 -0.373864 0
+0.142655 -0.406010 0
+0.147632 -0.420150 0
+0.144176 -0.410291 0
+0.132159 -0.376070 0
+0.113873 -0.324016 0
+0.048497 -0.138058 0
+0.061647 -0.175477 0
+0.072376 -0.206002 0
+0.078574 -0.223628 0
+0.080132 -0.228051 0
+0.078439 -0.223220 0
+0.072046 -0.205015 0
+0.061303 -0.174433 0
+0.104951 -0.298790 0
+0.126517 -0.360171 0
+0.113750 -0.323840 0
+0.131743 -0.375028 0
+0.150434 -0.428219 0
+0.138844 -0.395245 0
+0.155600 -0.442903 0
+0.170378 -0.484951 0
+0.161042 -0.458394 0
+0.173896 -0.494942 0
+0.184314 -0.524578 0
+0.178207 -0.507216 0
+0.184363 -0.524699 0
+0.190733 -0.542810 0
+0.188526 -0.536547 0
+0.185749 -0.528611 0
+0.188937 -0.537663 0
+0.190870 -0.543183 0
+0.177866 -0.506145 0
+0.179133 -0.509732 0
+0.184978 -0.526380 0
+0.161777 -0.460334 0
+0.162317 -0.461855 0
+0.171506 -0.488015 0
+0.139606 -0.397222 0
+0.151775 -0.431845 0
+0.077512 -0.220670 0
+0.105970 -0.301672 0
+0.092684 -0.263865 0
+0.101303 -0.288373 0
+0.131113 -0.373216 0
+0.118968 -0.338659 0
+0.122397 -0.348389 0
+0.152109 -0.432947 0
+0.142399 -0.405325 0
+0.138228 -0.393424 0
+0.166110 -0.472765 0
+0.160209 -0.455987 0
+0.145581 -0.414324 0
+0.171527 -0.488151 0
+0.169963 -0.483717 0
+0.147321 -0.419253 0
+0.167619 -0.477001 0
+0.170897 -0.486345 0
+0.139368 -0.396596 0
+0.154621 -0.439987 0
+0.162103 -0.461292 0
+0.123549 -0.351558 0
+0.134927 -0.383922 0
+0.145682 -0.414537 0
+0.102715 -0.292257 0
+0.123100 -0.350259 0
+0.041246 -0.117423 0
+0.070404 -0.200424 0
+0.060293 -0.171649 0
+0.055555 -0.158143 0
+0.089072 -0.253544 0
+0.080202 -0.228306 0
+0.067632 -0.192506 0
+0.104381 -0.297097 0
+0.097462 -0.277415 0
+0.075936 -0.216129 0
+0.113729 -0.323684 0
+0.110057 -0.313244 0
+0.079876 -0.227328 0
+0.117240 -0.333655 0
+0.116310 -0.331019 0
+0.079733 -0.226908 0
+0.114347 -0.325403 0
+0.116805 -0.332409 0
+0.076193 -0.216820 0
+0.104317 -0.296843 0
+0.110145 -0.313438 0
+0.067327 -0.191580 0
+0.089136 -0.253629 0
+0.097505 -0.277450 0
+0.054507 -0.155089 0
+0.079769 -0.226969 0
+0.025022 -0.071232 0
+0.021126 -0.060143 0
+0.031848 -0.090654 0
+0.028653 -0.081563 0
+0.037049 -0.105452 0
+0.034627 -0.098562 0
+0.040496 -0.115254 0
+0.039194 -0.111553 0
+0.041529 -0.118189 0
+0.041089 -0.116941 0
+0.040410 -0.114999 0
+0.041357 -0.117696 0
+0.037280 -0.106084 0
+0.039043 -0.111104 0
+0.031421 -0.089405 0
+0.034481 -0.098117 0
+0.027752 -0.078964 0
+0.107265 -0.305388 0
+0.116711 -0.332272 0
+0.098073 -0.279216 0
+0.109809 -0.312620 0
+0.111801 -0.318282 0
+0.123123 -0.350507 0
+0.120179 -0.342136 0
+0.128656 -0.366260 0
+0.132760 -0.377933 0
+0.140122 -0.398884 0
+0.125240 -0.356524 0
+0.136030 -0.387231 0
+0.138101 -0.393116 0
+0.148177 -0.421791 0
+0.144752 -0.412052 0
+0.150881 -0.429493 0
+0.155883 -0.443720 0
+0.160709 -0.457448 0
+0.150072 -0.427175 0
+0.159321 -0.453496 0
+0.160815 -0.457738 0
+0.169090 -0.481283 0
+0.165886 -0.472172 0
+0.169393 -0.482147 0
+0.174496 -0.496661 0
+0.176723 -0.502993 0
+0.169998 -0.483857 0
+0.177253 -0.504497 0
+0.177334 -0.504719 0
+0.183519 -0.522314 0
+0.181486 -0.516539 0
+0.182542 -0.519534 0
+0.186663 -0.531253 0
+0.186687 -0.531312 0
+0.182588 -0.519655 0
+0.187742 -0.534315 0
+0.185605 -0.528225 0
+0.189763 -0.540050 0
+0.189884 -0.540403 0
+0.189073 -0.538084 0
+0.191060 -0.543732 0
+0.189615 -0.539610 0
+0.186299 -0.530185 0
+0.189567 -0.539474 0
+0.184638 -0.525439 0
+0.187109 -0.532462 0
+0.190161 -0.541157 0
+0.188313 -0.535888 0
+0.187207 -0.532734 0
+0.185175 -0.526940 0
+0.180680 -0.514159 0
+0.182518 -0.519381 0
+0.174584 -0.496798 0
+0.175935 -0.500633 0
+0.182289 -0.518722 0
+0.180258 -0.512931 0
+0.175537 -0.499492 0
+0.173664 -0.494155 0
+0.166511 -0.473810 0
+0.167516 -0.476664 0
+0.156815 -0.446207 0
+0.157592 -0.448412 0
+0.167105 -0.475486 0
+0.165524 -0.470978 0
+0.157214 -0.447327 0
+0.155994 -0.443849 0
+0.145695 -0.414552 0
+0.146285 -0.416225 0
+0.133299 -0.379269 0
+0.146039 -0.415518 0
+0.085928 -0.244639 0
+0.099214 -0.282458 0
+0.071346 -0.203124 0
+0.085418 -0.243178 0
+0.083756 -0.238441 0
+0.098284 -0.279793 0
+0.099413 -0.283014 0
+0.112783 -0.321068 0
+0.112605 -0.320552 0
+0.126017 -0.358726 0
+0.095716 -0.272474 0
+0.110685 -0.315081 0
+0.107138 -0.304977 0
+0.122454 -0.348567 0
+0.125230 -0.356478 0
+0.138438 -0.394067 0
+0.136992 -0.389943 0
+0.149916 -0.426722 0
+0.117743 -0.335148 0
+0.133170 -0.379055 0
+0.127212 -0.362088 0
+0.142577 -0.405815 0
+0.147539 -0.419946 0
+0.159870 -0.455038 0
+0.156483 -0.445388 0
+0.168168 -0.478638 0
+0.135175 -0.384740 0
+0.150164 -0.427396 0
+0.140866 -0.400925 0
+0.155427 -0.442360 0
+0.163517 -0.465394 0
+0.174336 -0.496178 0
+0.168415 -0.479319 0
+0.178384 -0.507681 0
+0.144561 -0.411429 0
+0.158872 -0.452150 0
+0.147055 -0.418512 0
+0.160620 -0.457111 0
+0.171136 -0.487046 0
+0.180070 -0.512463 0
+0.171603 -0.488360 0
+0.179480 -0.510770 0
+0.147925 -0.420977 0
+0.160098 -0.455611 0
+0.146188 -0.416022 0
+0.156823 -0.446281 0
+0.169641 -0.482762 0
+0.176344 -0.501829 0
+0.165224 -0.470179 0
+0.171001 -0.486612 0
+0.142189 -0.404630 0
+0.151555 -0.431274 0
+0.136150 -0.387431 0
+0.144125 -0.410120 0
+0.158697 -0.451591 0
+0.163582 -0.465486 0
+0.150450 -0.428110 0
+0.154484 -0.439582 0
+0.128202 -0.364805 0
+0.135263 -0.384891 0
+0.119017 -0.338658 0
+0.124918 -0.355442 0
+0.140563 -0.399963 0
+0.143814 -0.409207 0
+0.129228 -0.367701 0
+0.131857 -0.375175 0
+0.108550 -0.308864 0
+0.113320 -0.322430 0
+0.096764 -0.275318 0
+0.116689 -0.332010 0
+0.055014 -0.156625 0
+0.069128 -0.196803 0
+0.037336 -0.106297 0
+0.050907 -0.144927 0
+0.045108 -0.128414 0
+0.059654 -0.169820 0
+0.065527 -0.186544 0
+0.080397 -0.228873 0
+0.075538 -0.215035 0
+0.091151 -0.259473 0
+0.052314 -0.148921 0
+0.068146 -0.193986 0
+0.058949 -0.167801 0
+0.075689 -0.215447 0
+0.084934 -0.241769 0
+0.101286 -0.288309 0
+0.093608 -0.266451 0
+0.110495 -0.314513 0
+0.065024 -0.185086 0
+0.082932 -0.236056 0
+0.070435 -0.200481 0
+0.088808 -0.252774 0
+0.101314 -0.288374 0
+0.118520 -0.337343 0
+0.107650 -0.306398 0
+0.124841 -0.355320 0
+0.074624 -0.212396 0
+0.093469 -0.266030 0
+0.077747 -0.221278 0
+0.096634 -0.275031 0
+0.112359 -0.319790 0
+0.128899 -0.366860 0
+0.115502 -0.328724 0
+0.131649 -0.374673 0
+0.079736 -0.226933 0
+0.098596 -0.280606 0
+0.080524 -0.229169 0
+0.099196 -0.282304 0
+0.117268 -0.333740 0
+0.133186 -0.379037 0
+0.117516 -0.334436 0
+0.132810 -0.377957 0
+0.080453 -0.228959 0
+0.098772 -0.281089 0
+0.079599 -0.226523 0
+0.096859 -0.275637 0
+0.116059 -0.330282 0
+0.129956 -0.369824 0
+0.112710 -0.320740 0
+0.125403 -0.356856 0
+0.077813 -0.221435 0
+0.093580 -0.266299 0
+0.074590 -0.212255 0
+0.088541 -0.251953 0
+0.107665 -0.306376 0
+0.118797 -0.338046 0
+0.101310 -0.288283 0
+0.110988 -0.315816 0
+0.070129 -0.199555 0
+0.082718 -0.235376 0
+0.064716 -0.184147 0
+0.075458 -0.214708 0
+0.093674 -0.266547 0
+0.101887 -0.289910 0
+0.084758 -0.241168 0
+0.091530 -0.260431 0
+0.058262 -0.165778 0
+0.067308 -0.191514 0
+0.050556 -0.143846 0
+0.074544 -0.212098 0
+0.018985 -0.054049 0
+0.031221 -0.088883 0
+0.010475 -0.029823 0
+0.012410 -0.035328 0
+0.023363 -0.066510 0
+0.036826 -0.104834 0
+0.027172 -0.077351 0
+0.042200 -0.120127 0
+0.014209 -0.040446 0
+0.015788 -0.044940 0
+0.030628 -0.087184 0
+0.046866 -0.133404 0
+0.033652 -0.095787 0
+0.051273 -0.145941 0
+0.017159 -0.048840 0
+0.018351 -0.052232 0
+0.036283 -0.103273 0
+0.054870 -0.156175 0
+0.038590 -0.109836 0
+0.057727 -0.164302 0
+0.019405 -0.055231 0
+0.020044 -0.057047 0
+0.040336 -0.114802 0
+0.059700 -0.169911 0
+0.041299 -0.117538 0
+0.060645 -0.172596 0
+0.020335 -0.057872 0
+0.020551 -0.058487 0
+0.041822 -0.119024 0
+0.060986 -0.173562 0
+0.041958 -0.119407 0
+0.060697 -0.172733 0
+0.020468 -0.058248 0
+0.020003 -0.056924 0
+0.041395 -0.117801 0
+0.059572 -0.169529 0
+0.040228 -0.114477 0
+0.057758 -0.164360 0
+0.019331 -0.055011 0
+0.018464 -0.052540 0
+0.038647 -0.109976 0
+0.054781 -0.155886 0
+0.036341 -0.103409 0
+0.051001 -0.145125 0
+0.017082 -0.048608 0
+0.015569 -0.044300 0
+0.033385 -0.094997 0
+0.046430 -0.132113 0
+0.029985 -0.085320 0
+0.041166 -0.117130 0
+0.013752 -0.039128 0
+0.025623 -0.072906 0
+0.122849 -0.349503 0
+0.107190 -0.304919 0
+0.081460 -0.231676 0
+0.048286 -0.137253 0
+0.011473 -0.032482 0
-0.024614 +0.070211 0
-0.055793 +0.158932 0
-0.078763 +0.224284 0
+0.090404 -0.257195 0
+0.080256 -0.228295 0
+0.061971 -0.176243 0
+0.037391 -0.106280 0
+0.010040 -0.028438 0
-0.017097 +0.048785 0
-0.040439 +0.115203 0
-0.057258 +0.163050 0
+0.047942 -0.136393 0
+0.042823 -0.121811 0
+0.032921 -0.093625 0
+0.020268 -0.057609 0
+0.005822 -0.016494 0
-0.008463 +0.024154 0
-0.021027 +0.059906 0
-0.030064 +0.085612 0
+0.126333 -0.359433 0
+0.133388 -0.379491 0
+0.138281 -0.393426 0
+0.116307 -0.330875 0
+0.114845 -0.326698 0
+0.125516 -0.357075 0
+0.095397 -0.271346 0
+0.086193 -0.245141 0
+0.101643 -0.289116 0
+0.065560 -0.186419 0
+0.050266 -0.142883 0
+0.068919 -0.195974 0
+0.030071 -0.085411 0
+0.010893 -0.030828 0
+0.030745 -0.087325 0
-0.006944 +0.019930 0
-0.027609 +0.078741 0
-0.008737 +0.025037 0
-0.041068 +0.117035 0
-0.061119 +0.174099 0
-0.045223 +0.128866 0
-0.068513 +0.195124 0
-0.086291 +0.245718 0
-0.074925 +0.213381 0
-0.086467 +0.246198 0
-0.094986 +0.270454 0
+0.091937 -0.261570 0
+0.108272 -0.308031 0
+0.110695 -0.314938 0
+0.086539 -0.246187 0
+0.095443 -0.271498 0
+0.103211 -0.293618 0
+0.072117 -0.205125 0
+0.073219 -0.208235 0
+0.085447 -0.243042 0
+0.050367 -0.143213 0
+0.043935 -0.124883 0
+0.059285 -0.168572 0
+0.023888 -0.067849 0
+0.011168 -0.031627 0
+0.027754 -0.078830 0
-0.003804 +0.010958 0
-0.021072 +0.060119 0
-0.005279 +0.015176 0
-0.029506 +0.084094 0
-0.048856 +0.139178 0
-0.035695 +0.101729 0
-0.049842 +0.141954 0
-0.069002 +0.196493 0
-0.060032 +0.170975 0
-0.062551 +0.178103 0
-0.075522 +0.215036 0
+0.048284 -0.137372 0
+0.070244 -0.199841 0
+0.071029 -0.202085 0
+0.046158 -0.131308 0
+0.062678 -0.178293 0
+0.067506 -0.192042 0
+0.038622 -0.109852 0
+0.048515 -0.137974 0
+0.056430 -0.160503 0
+0.027103 -0.077062 0
+0.029531 -0.083939 0
+0.039557 -0.112474 0
+0.013196 -0.037482 0
+0.008222 -0.023292 0
+0.019051 -0.054111 0
-0.001475 +0.004269 0
-0.012886 +0.036774 0
-0.002531 +0.007307 0
-0.015172 +0.043245 0
-0.031143 +0.088723 0
-0.022562 +0.064308 0
-0.026195 +0.074607 0
-0.044284 +0.126105 0
-0.038557 +0.109816 0
-0.032756 +0.093267 0
-0.048221 +0.137303 0
+0.024615 -0.070028 0
+0.024677 -0.070209 0
+0.021971 -0.062499 0
+0.023695 -0.067405 0
+0.016881 -0.048007 0
+0.019643 -0.055870 0
+0.010383 -0.029513 0
+0.013811 -0.039270 0
+0.003063 -0.008678 0
+0.006735 -0.019129 0
-0.004215 +0.012031 0
-0.000637 +0.001852 0
-0.010660 +0.030371 0
-0.007592 +0.021640 0
-0.015311 +0.043602 0
-0.013251 +0.037741 0
-0.016649 +0.047406 0
+0.139557 -0.397063 0
+0.142692 -0.405977 0
+0.126938 -0.361160 0
+0.132805 -0.377845 0
+0.125003 -0.355640 0
+0.128639 -0.365979 0
+0.136228 -0.387578 0
+0.137047 -0.389901 0
+0.129825 -0.369345 0
+0.128438 -0.365390 0
+0.119963 -0.341286 0
+0.121452 -0.345512 0
+0.112121 -0.318955 0
+0.111541 -0.317298 0
+0.120525 -0.342866 0
+0.117066 -0.333018 0
+0.108554 -0.308788 0
+0.103205 -0.293561 0
+0.101617 -0.289051 0
+0.099027 -0.281672 0
+0.088717 -0.252332 0
+0.084276 -0.239685 0
+0.094177 -0.267865 0
+0.087183 -0.247957 0
+0.077762 -0.221144 0
+0.069406 -0.197361 0
+0.073729 -0.209670 0
+0.067630 -0.192305 0
+0.057088 -0.162306 0
+0.049578 -0.140926 0
+0.059734 -0.169831 0
+0.050330 -0.143067 0
+0.040583 -0.115327 0
+0.030444 -0.086472 0
+0.039269 -0.111589 0
+0.030618 -0.086965 0
+0.020785 -0.058983 0
+0.011295 -0.031972 0
+0.020824 -0.059090 0
+0.010272 -0.029062 0
+0.001016 -0.002719 0
-0.009665 +0.027675 0
+0.002207 -0.006114 0
-0.007827 +0.022446 0
-0.015915 +0.045458 0
-0.026190 +0.074702 0
-0.018304 +0.052263 0
-0.028851 +0.082275 0
-0.036606 +0.104343 0
-0.046801 +0.133356 0
-0.033032 +0.094167 0
-0.043305 +0.123405 0
-0.048687 +0.138715 0
-0.058683 +0.167163 0
-0.053418 +0.152185 0
-0.063070 +0.179650 0
-0.068313 +0.194567 0
-0.077273 +0.220065 0
-0.062448 +0.177869 0