# vtk DataFile Version 2.0
this shit
ASCII
DATASET POLYDATA
POINTS 441 double
-0.628319 -0.628319 0.000000
-0.565487 -0.628319 0.000000
-0.502655 -0.628319 0.000000
-0.439823 -0.628319 0.000000
-0.376991 -0.628319 0.000000
-0.314159 -0.628319 0.000000
-0.251327 -0.628319 0.000000
-0.188496 -0.628319 0.000000
-0.125664 -0.628319 0.000000
-0.062832 -0.628319 0.000000
0.000000 -0.628319 0.000000
0.062832 -0.628319 0.000000
0.125664 -0.628319 0.000000
0.188496 -0.628319 0.000000
0.251327 -0.628319 0.000000
0.314159 -0.628319 0.000000
0.376991 -0.628319 0.000000
0.439823 -0.628319 0.000000
0.502655 -0.628319 0.000000
0.565487 -0.628319 0.000000
0.628319 -0.628319 0.000000
-0.628319 -0.565487 0.000000
-0.565487 -0.565487 0.000000
-0.502655 -0.565487 0.000000
-0.439823 -0.565487 0.000000
-0.376991 -0.565487 0.000000
-0.314159 -0.565487 0.000000
-0.251327 -0.565487 0.000000
-0.188496 -0.565487 0.000000
-0.125664 -0.565487 0.000000
-0.062832 -0.565487 0.000000
0.000000 -0.565487 0.000000
0.062832 -0.565487 0.000000
0.125664 -0.565487 0.000000
0.188496 -0.565487 0.000000
0.251327 -0.565487 0.000000
0.314159 -0.565487 0.000000
0.376991 -0.565487 0.000000
0.439823 -0.565487 0.000000
0.502655 -0.565487 0.000000
0.565487 -0.565487 0.000000
0.628319 -0.565487 0.000000
-0.628319 -0.502655 0.000000
-0.565487 -0.502655 0.000000
-0.502655 -0.502655 0.000000
-0.439823 -0.502655 0.000000
-0.376991 -0.502655 0.000000
-0.314159 -0.502655 0.000000
-0.251327 -0.502655 0.000000
-0.188496 -0.502655 0.000000
-0.125664 -0.502655 0.000000
-0.062832 -0.502655 0.000000
0.000000 -0.502655 0.000000
0.062832 -0.502655 0.000000
0.125664 -0.502655 0.000000
0.188496 -0.502655 0.000000
0.251327 -0.502655 0.000000
0.314159 -0.502655 0.000000
0.376991 -0.502655 0.000000
0.439823 -0.502655 0.000000
0.502655 -0.502655 0.000000
0.565487 -0.502655 0.000000
0.628319 -0.502655 0.000000
-0.628319 -0.439823 0.000000
-0.565487 -0.439823 0.000000
-0.502655 -0.439823 0.000000
-0.439823 -0.439823 0.000000
-0.376991 -0.439823 0.000000
-0.314159 -0.439823 0.000000
-0.251327 -0.439823 0.000000
-0.188496 -0.439823 0.000000
-0.125664 -0.439823 0.000000
-0.062832 -0.439823 0.000000
0.000000 -0.439823 0.000000
0.062832 -0.439823 0.000000
0.125664 -0.439823 0.000000
0.188496 -0.439823 0.000000
0.251327 -0.439823 0.000000
0.314159 -0.439823 0.000000
0.376991 -0.439823 0.000000
0.439823 -0.439823 0.000000
0.502655 -0.439823 0.000000
0.565487 -0.439823 0.000000
0.628319 -0.439823 0.000000
-0.628319 -0.376991 0.000000
-0.565487 -0.376991 0.000000
-0.502655 -0.376991 0.000000
-0.439823 -0.376991 0.000000
-0.376991 -0.376991 0.000000
-0.314159 -0.376991 0.000000
-0.251327 -0.376991 0.000000
-0.188496 -0.376991 0.000000
-0.125664 -0.376991 0.000000
-0.062832 -0.376991 0.000000
0.000000 -0.376991 0.000000
0.062832 -0.376991 0.000000
0.125664 -0.376991 0.000000
0.188496 -0.376991 0.000000
0.251327 -0.376991 0.000000
0.314159 -0.376991 0.000000
0.376991 -0.376991 0.000000
0.439823 -0.376991 0.000000
0.502655 -0.376991 0.000000
0.565487 -0.376991 0.000000
0.628319 -0.376991 0.000000
-0.628319 -0.314159 0.000000
-0.565487 -0.314159 0.000000
-0.502655 -0.314159 0.000000
-0.439823 -0.314159 0.000000
-0.376991 -0.314159 0.000000
-0.314159 -0.314159 0.000000
-0.251327 -0.314159 0.000000
-0.188496 -0.314159 0.000000
-0.125664 -0.314159 0.000000
-0.062832 -0.314159 0.000000
0.000000 -0.314159 0.000000
0.062832 -0.314159 0.000000
0.125664 -0.314159 0.000000
0.188496 -0.314159 0.000000
0.251327 -0.314159 0.000000
0.314159 -0.314159 0.000000
0.376991 -0.314159 0.000000
0.439823 -0.314159 0.000000
0.502655 -0.314159 0.000000
0.565487 -0.314159 0.000000
0.628319 -0.314159 0.000000
-0.628319 -0.251327 0.000000
-0.565487 -0.251327 0.000000
-0.502655 -0.251327 0.000000
-0.439823 -0.251327 0.000000
-0.376991 -0.251327 0.000000
-0.314159 -0.251327 0.000000
-0.251327 -0.251327 0.000000
-0.188496 -0.251327 0.000000
-0.125664 -0.251327 0.000000
-0.062832 -0.251327 0.000000
0.000000 -0.251327 0.000000
0.062832 -0.251327 0.000000
0.125664 -0.251327 0.000000
0.188496 -0.251327 0.000000
0.251327 -0.251327 0.000000
0.314159 -0.251327 0.000000
0.376991 -0.251327 0.000000
0.439823 -0.251327 0.000000
0.502655 -0.251327 0.000000
0.565487 -0.251327 0.000000
0.628319 -0.251327 0.000000
-0.628319 -0.188496 0.000000
-0.565487 -0.188496 0.000000
-0.502655 -0.188496 0.000000
-0.439823 -0.188496 0.000000
-0.376991 -0.188496 0.000000
-0.314159 -0.188496 0.000000
-0.251327 -0.188496 0.000000
-0.188496 -0.188496 0.000000
-0.125664 -0.188496 0.000000
-0.062832 -0.188496 0.000000
0.000000 -0.188496 0.000000
0.062832 -0.188496 0.000000
0.125664 -0.188496 0.000000
0.188496 -0.188496 0.000000
0.251327 -0.188496 0.000000
0.314159 -0.188496 0.000000
0.376991 -0.188496 0.000000
0.439823 -0.188496 0.000000
0.502655 -0.188496 0.000000
0.565487 -0.188496 0.000000
0.628319 -0.188496 0.000000
-0.628319 -0.125664 0.000000
-0.565487 -0.125664 0.000000
-0.502655 -0.125664 0.000000
-0.439823 -0.125664 0.000000
-0.376991 -0.125664 0.000000
-0.314159 -0.125664 0.000000
-0.251327 -0.125664 0.000000
-0.188496 -0.125664 0.000000
-0.125664 -0.125664 0.000000
-0.062832 -0.125664 0.000000
0.000000 -0.125664 0.000000
0.062832 -0.125664 0.000000
0.125664 -0.125664 0.000000
0.188496 -0.125664 0.000000
0.251327 -0.125664 0.000000
0.314159 -0.125664 0.000000
0.376991 -0.125664 0.000000
0.439823 -0.125664 0.000000
0.502655 -0.125664 0.000000
0.565487 -0.125664 0.000000
0.628319 -0.125664 0.000000
-0.628319 -0.062832 0.000000
-0.565487 -0.062832 0.000000
-0.502655 -0.062832 0.000000
-0.439823 -0.062832 0.000000
-0.376991 -0.062832 0.000000
-0.314159 -0.062832 0.000000
-0.251327 -0.062832 0.000000
-0.188496 -0.062832 0.000000
-0.125664 -0.062832 0.000000
-0.062832 -0.062832 0.000000
0.000000 -0.062832 0.000000
0.062832 -0.062832 0.000000
0.125664 -0.062832 0.000000
0.188496 -0.062832 0.000000
0.251327 -0.062832 0.000000
0.314159 -0.062832 0.000000
0.376991 -0.062832 0.000000
0.439823 -0.062832 0.000000
0.502655 -0.062832 0.000000
0.565487 -0.062832 0.000000
0.628319 -0.062832 0.000000
-0.628319 0.000000 0.000000
-0.565487 0.000000 0.000000
-0.502655 0.000000 0.000000
-0.439823 0.000000 0.000000
-0.376991 0.000000 0.000000
-0.314159 0.000000 0.000000
-0.251327 0.000000 0.000000
-0.188496 0.000000 0.000000
-0.125664 0.000000 0.000000
-0.062832 0.000000 0.000000
0.000000 0.000000 0.000000
0.062832 0.000000 0.000000
0.125664 0.000000 0.000000
0.188496 0.000000 0.000000
0.251327 0.000000 0.000000
0.314159 0.000000 0.000000
0.376991 0.000000 0.000000
0.439823 0.000000 0.000000
0.502655 0.000000 0.000000
0.565487 0.000000 0.000000
0.628319 0.000000 0.000000
-0.628319 0.062832 0.000000
-0.565487 0.062832 0.000000
-0.502655 0.062832 0.000000
-0.439823 0.062832 0.000000
-0.376991 0.062832 0.000000
-0.314159 0.062832 0.000000
-0.251327 0.062832 0.000000
-0.188496 0.062832 0.000000
-0.125664 0.062832 0.000000
-0.062832 0.062832 0.000000
0.000000 0.062832 0.000000
0.062832 0.062832 0.000000
0.125664 0.062832 0.000000
0.188496 0.062832 0.000000
0.251327 0.062832 0.000000
0.314159 0.062832 0.000000
0.376991 0.062832 0.000000
0.439823 0.062832 0.000000
0.502655 0.062832 0.000000
0.565487 0.062832 0.000000
0.628319 0.062832 0.000000
-0.628319 0.125664 0.000000
-0.565487 0.125664 0.000000
-0.502655 0.125664 0.000000
-0.439823 0.125664 0.000000
-0.376991 0.125664 0.000000
-0.314159 0.125664 0.000000
-0.251327 0.125664 0.000000
-0.188496 0.125664 0.000000
-0.125664 0.125664 0.000000
-0.062832 0.125664 0.000000
0.000000 0.125664 0.000000
0.062832 0.125664 0.000000
0.125664 0.125664 0.000000
0.188496 0.125664 0.000000
0.251327 0.125664 0.000000
0.314159 0.125664 0.000000
0.376991 0.125664 0.000000
0.439823 0.125664 0.000000
0.502655 0.125664 0.000000
0.565487 0.125664 0.000000
0.628319 0.125664 0.000000
-0.628319 0.188496 0.000000
-0.565487 0.188496 0.000000
-0.502655 0.188496 0.000000
-0.439823 0.188496 0.000000
-0.376991 0.188496 0.000000
-0.314159 0.188496 0.000000
-0.251327 0.188496 0.000000
-0.188496 0.188496 0.000000
-0.125664 0.188496 0.000000
-0.062832 0.188496 0.000000
0.000000 0.188496 0.000000
0.062832 0.188496 0.000000
0.125664 0.188496 0.000000
0.188496 0.188496 0.000000
0.251327 0.188496 0.000000
0.314159 0.188496 0.000000
0.376991 0.188496 0.000000
0.439823 0.188496 0.000000
0.502655 0.188496 0.000000
0.565487 0.188496 0.000000
0.628319 0.188496 0.000000
-0.628319 0.251327 0.000000
-0.565487 0.251327 0.000000
-0.502655 0.251327 0.000000
-0.439823 0.251327 0.000000
-0.376991 0.251327 0.000000
-0.314159 0.251327 0.000000
-0.251327 0.251327 0.000000
-0.188496 0.251327 0.000000
-0.125664 0.251327 0.000000
-0.062832 0.251327 0.000000
0.000000 0.251327 0.000000
0.062832 0.251327 0.000000
0.125664 0.251327 0.000000
0.188496 0.251327 0.000000
0.251327 0.251327 0.000000
0.314159 0.251327 0.000000
0.376991 0.251327 0.000000
0.439823 0.251327 0.000000
0.502655 0.251327 0.000000
0.565487 0.251327 0.000000
0.628319 0.251327 0.000000
-0.628319 0.314159 0.000000
-0.565487 0.314159 0.000000
-0.502655 0.314159 0.000000
-0.439823 0.314159 0.000000
-0.376991 0.314159 0.000000
-0.314159 0.314159 0.000000
-0.251327 0.314159 0.000000
-0.188496 0.314159 0.000000
-0.125664 0.314159 0.000000
-0.062832 0.314159 0.000000
0.000000 0.314159 0.000000
0.062832 0.314159 0.000000
0.125664 0.314159 0.000000
0.188496 0.314159 0.000000
0.251327 0.314159 0.000000
0.314159 0.314159 0.000000
0.376991 0.314159 0.000000
0.439823 0.314159 0.000000
0.502655 0.314159 0.000000
0.565487 0.314159 0.000000
0.628319 0.314159 0.000000
-0.628319 0.376991 0.000000
-0.565487 0.376991 0.000000
-0.502655 0.376991 0.000000
-0.439823 0.376991 0.000000
-0.376991 0.376991 0.000000
-0.314159 0.376991 0.000000
-0.251327 0.376991 0.000000
-0.188496 0.376991 0.000000
-0.125664 0.376991 0.000000
-0.062832 0.376991 0.000000
0.000000 0.376991 0.000000
0.062832 0.376991 0.000000
0.125664 0.376991 0.000000
0.188496 0.376991 0.000000
0.251327 0.376991 0.000000
0.314159 0.376991 0.000000
0.376991 0.376991 0.000000
0.439823 0.376991 0.000000
0.502655 0.376991 0.000000
0.565487 0.376991 0.000000
0.628319 0.376991 0.000000
-0.628319 0.439823 0.000000
-0.565487 0.439823 0.000000
-0.502655 0.439823 0.000000
-0.439823 0.439823 0.000000
-0.376991 0.439823 0.000000
-0.314159 0.439823 0.000000
-0.251327 0.439823 0.000000
-0.188496 0.439823 0.000000
-0.125664 0.439823 0.000000
-0.062832 0.439823 0.000000
0.000000 0.439823 0.000000
0.062832 0.439823 0.000000
0.125664 0.439823 0.000000
0.188496 0.439823 0.000000
0.251327 0.439823 0.000000
0.314159 0.439823 0.000000
0.376991 0.439823 0.000000
0.439823 0.439823 0.000000
0.502655 0.439823 0.000000
0.565487 0.439823 0.000000
0.628319 0.439823 0.000000
-0.628319 0.502655 0.000000
-0.565487 0.502655 0.000000
-0.502655 0.502655 0.000000
-0.439823 0.502655 0.000000
-0.376991 0.502655 0.000000
-0.314159 0.502655 0.000000
-0.251327 0.502655 0.000000
-0.188496 0.502655 0.000000
-0.125664 0.502655 0.000000
-0.062832 0.502655 0.000000
0.000000 0.502655 0.000000
0.062832 0.502655 0.000000
0.125664 0.502655 0.000000
0.188496 0.502655 0.000000
0.251327 0.502655 0.000000
0.314159 0.502655 0.000000
0.376991 0.502655 0.000000
0.439823 0.502655 0.000000
0.502655 0.502655 0.000000
0.565487 0.502655 0.000000
0.628319 0.502655 0.000000
-0.628319 0.565487 0.000000
-0.565487 0.565487 0.000000
-0.502655 0.565487 0.000000
-0.439823 0.565487 0.000000
-0.376991 0.565487 0.000000
-0.314159 0.565487 0.000000
-0.251327 0.565487 0.000000
-0.188496 0.565487 0.000000
-0.125664 0.565487 0.000000
-0.062832 0.565487 0.000000
0.000000 0.565487 0.000000
0.062832 0.565487 0.000000
0.125664 0.565487 0.000000
0.188496 0.565487 0.000000
0.251327 0.565487 0.000000
0.314159 0.565487 0.000000
0.376991 0.565487 0.000000
0.439823 0.565487 0.000000
0.502655 0.565487 0.000000
0.565487 0.565487 0.000000
0.628319 0.565487 0.000000
-0.628319 0.628319 0.000000
-0.565487 0.628319 0.000000
-0.502655 0.628319 0.000000
-0.439823 0.628319 0.000000
-0.376991 0.628319 0.000000
-0.314159 0.628319 0.000000
-0.251327 0.628319 0.000000
-0.188496 0.628319 0.000000
-0.125664 0.628319 0.000000
-0.062832 0.628319 0.000000
0.000000 0.628319 0.000000
0.062832 0.628319 0.000000
0.125664 0.628319 0.000000
0.188496 0.628319 0.000000
0.251327 0.628319 0.000000
0.314159 0.628319 0.000000
0.376991 0.628319 0.000000
0.439823 0.628319 0.000000
0.502655 0.628319 0.000000
0.565487 0.628319 0.000000
0.628319 0.628319 0.000000
POLYGONS 800 3200
3 0 1 22
3 0 22 21
3 1 2 23
3 1 23 22
3 2 3 24
3 2 24 23
3 3 4 25
3 3 25 24
3 4 5 26
3 4 26 25
3 5 6 27
3 5 27 26
3 6 7 28
3 6 28 27
3 7 8 29
3 7 29 28
3 8 9 30
3 8 30 29
3 9 10 31
3 9 31 30
3 10 11 32
3 10 32 31
3 11 12 33
3 11 33 32
3 12 13 34
3 12 34 33
3 13 14 35
3 13 35 34
3 14 15 36
3 14 36 35
3 15 16 37
3 15 37 36
3 16 17 38
3 16 38 37
3 17 18 39
3 17 39 38
3 18 19 40
3 18 40 39
3 19 20 41
3 19 41 40
3 21 22 43
3 21 43 42
3 22 23 44
3 22 44 43
3 23 24 45
3 23 45 44
3 24 25 46
3 24 46 45
3 25 26 47
3 25 47 46
3 26 27 48
3 26 48 47
3 27 28 49
3 27 49 48
3 28 29 50
3 28 50 49
3 29 30 51
3 29 51 50
3 30 31 52
3 30 52 51
3 31 32 53
3 31 53 52
3 32 33 54
3 32 54 53
3 33 34 55
3 33 55 54
3 34 35 56
3 34 56 55
3 35 36 57
3 35 57 56
3 36 37 58
3 36 58 57
3 37 38 59
3 37 59 58
3 38 39 60
3 38 60 59
3 39 40 61
3 39 61 60
3 40 41 62
3 40 62 61
3 42 43 64
3 42 64 63
3 43 44 65
3 43 65 64
3 44 45 66
3 44 66 65
3 45 46 67
3 45 67 66
3 46 47 68
3 46 68 67
3 47 48 69
3 47 69 68
3 48 49 70
3 48 70 69
3 49 50 71
3 49 71 70
3 50 51 72
3 50 72 71
3 51 52 73
3 51 73 72
3 52 53 74
3 52 74 73
3 53 54 75
3 53 75 74
3 54 55 76
3 54 76 75
3 55 56 77
3 55 77 76
3 56 57 78
3 56 78 77
3 57 58 79
3 57 79 78
3 58 59 80
3 58 80 79
3 59 60 81
3 59 81 80
3 60 61 82
3 60 82 81
3 61 62 83
3 61 83 82
3 63 64 85
3 63 85 84
3 64 65 86
3 64 86 85
3 65 66 87
3 65 87 86
3 66 67 88
3 66 88 87
3 67 68 89
3 67 89 88
3 68 69 90
3 68 90 89
3 69 70 91
3 69 91 90
3 70 71 92
3 70 92 91
3 71 72 93
3 71 93 92
3 72 73 94
3 72 94 93
3 73 74 95
3 73 95 94
3 74 75 96
3 74 96 95
3 75 76 97
3 75 97 96
3 76 77 98
3 76 98 97
3 77 78 99
3 77 99 98
3 78 79 100
3 78 100 99
3 79 80 101
3 79 101 100
3 80 81 102
3 80 102 101
3 81 82 103
3 81 103 102
3 82 83 104
3 82 104 103
3 84 85 106
3 84 106 105
3 85 86 107
3 85 107 106
3 86 87 108
3 86 108 107
3 87 88 109
3 87 109 108
3 88 89 110
3 88 110 109
3 89 90 111
3 89 111 110
3 90 91 112
3 90 112 111
3 91 92 113
3 91 113 112
3 92 93 114
3 92 114 113
3 93 94 115
3 93 115 114
3 94 95 116
3 94 116 115
3 95 96 117
3 95 117 116
3 96 97 118
3 96 118 117
3 97 98 119
3 97 119 118
3 98 99 120
3 98 120 119
3 99 100 121
3 99 121 120
3 100 101 122
3 100 122 121
3 101 102 123
3 101 123 122
3 102 103 124
3 102 124 123
3 103 104 125
3 103 125 124
3 105 106 127
3 105 127 126
3 106 107 128
3 106 128 127
3 107 108 129
3 107 129 128
3 108 109 130
3 108 130 129
3 109 110 131
3 109 131 130
3 110 111 132
3 110 132 131
3 111 112 133
3 111 133 132
3 112 113 134
3 112 134 133
3 113 114 135
3 113 135 134
3 114 115 136
3 114 136 135
3 115 116 137
3 115 137 136
3 116 117 138
3 116 138 137
3 117 118 139
3 117 139 138
3 118 119 140
3 118 140 139
3 119 120 141
3 119 141 140
3 120 121 142
3 120 142 141
3 121 122 143
3 121 143 142
3 122 123 144
3 122 144 143
3 123 124 145
3 123 145 144
3 124 125 146
3 124 146 145
3 126 127 148
3 126 148 147
3 127 128 149
3 127 149 148
3 128 129 150
3 128 150 149
3 129 130 151
3 129 151 150
3 130 131 152
3 130 152 151
3 131 132 153
3 131 153 152
3 132 133 154
3 132 154 153
3 133 134 155
3 133 155 154
3 134 135 156
3 134 156 155
3 135 136 157
3 135 157 156
3 136 137 158
3 136 158 157
3 137 138 159
3 137 159 158
3 138 139 160
3 138 160 159
3 139 140 161
3 139 161 160
3 140 141 162
3 140 162 161
3 141 142 163
3 141 163 162
3 142 143 164
3 142 164 163
3 143 144 165
3 143 165 164
3 144 145 166
3 144 166 165
3 145 146 167
3 145 167 166
3 147 148 169
3 147 169 168
3 148 149 170
3 148 170 169
3 149 150 171
3 149 171 170
3 150 151 172
3 150 172 171
3 151 152 173
3 151 173 172
3 152 153 174
3 152 174 173
3 153 154 175
3 153 175 174
3 154 155 176
3 154 176 175
3 155 156 177
3 155 177 176
3 156 157 178
3 156 178 177
3 157 158 179
3 157 179 178
3 158 159 180
3 158 180 179
3 159 160 181
3 159 181 180
3 160 161 182
3 160 182 181
3 161 162 183
3 161 183 182
3 162 163 184
3 162 184 183
3 163 164 185
3 163 185 184
3 164 165 186
3 164 186 185
3 165 166 187
3 165 187 186
3 166 167 188
3 166 188 187
3 168 169 190
3 168 190 189
3 169 170 191
3 169 191 190
3 170 171 192
3 170 192 191
3 171 172 193
3 171 193 192
3 172 173 194
3 172 194 193
3 173 174 195
3 173 195 194
3 174 175 196
3 174 196 195
3 175 176 197
3 175 197 196
3 176 177 198
3 176 198 197
3 177 178 199
3 177 199 198
3 178 179 200
3 178 200 199
3 179 180 201
3 179 201 200
3 180 181 202
3 180 202 201
3 181 182 203
3 181 203 202
3 182 183 204
3 182 204 203
3 183 184 205
3 183 205 204
3 184 185 206
3 184 206 205
3 185 186 207
3 185 207 206
3 186 187 208
3 186 208 207
3 187 188 209
3 187 209 208
3 189 190 211
3 189 211 210
3 190 191 212
3 190 212 211
3 191 192 213
3 191 213 212
3 192 193 214
3 192 214 213
3 193 194 215
3 193 215 214
3 194 195 216
3 194 216 215
3 195 196 217
3 195 217 216
3 196 197 218
3 196 218 217
3 197 198 219
3 197 219 218
3 198 199 220
3 198 220 219
3 199 200 221
3 199 221 220
3 200 201 222
3 200 222 221
3 201 202 223
3 201 223 222
3 202 203 224
3 202 224 223
3 203 204 225
3 203 225 224
3 204 205 226
3 204 226 225
3 205 206 227
3 205 227 226
3 206 207 228
3 206 228 227
3 207 208 229
3 207 229 228
3 208 209 230
3 208 230 229
3 210 211 232
3 210 232 231
3 211 212 233
3 211 233 232
3 212 213 234
3 212 234 233
3 213 214 235
3 213 235 234
3 214 215 236
3 214 236 235
3 215 216 237
3 215 237 236
3 216 217 238
3 216 238 237
3 217 218 239
3 217 239 238
3 218 219 240
3 218 240 239
3 219 220 241
3 219 241 240
3 220 221 242
3 220 242 241
3 221 222 243
3 221 243 242
3 222 223 244
3 222 244 243
3 223 224 245
3 223 245 244
3 224 225 246
3 224 246 245
3 225 226 247
3 225 247 246
3 226 227 248
3 226 248 247
3 227 228 249
3 227 249 248
3 228 229 250
3 228 250 249
3 229 230 251
3 229 251 250
3 231 232 253
3 231 253 252
3 232 233 254
3 232 254 253
3 233 234 255
3 233 255 254
3 234 235 256
3 234 256 255
3 235 236 257
3 235 257 256
3 236 237 258
3 236 258 257
3 237 238 259
3 237 259 258
3 238 239 260
3 238 260 259
3 239 240 261
3 239 261 260
3 240 241 262
3 240 262 261
3 241 242 263
3 241 263 262
3 242 243 264
3 242 264 263
3 243 244 265
3 243 265 264
3 244 245 266
3 244 266 265
3 245 246 267
3 245 267 266
3 246 247 268
3 246 268 267
3 247 248 269
3 247 269 268
3 248 249 270
3 248 270 269
3 249 250 271
3 249 271 270
3 250 251 272
3 250 272 271
3 252 253 274
3 252 274 273
3 253 254 275
3 253 275 274
3 254 255 276
3 254 276 275
3 255 256 277
3 255 277 276
3 256 257 278
3 256 278 277
3 257 258 279
3 257 279 278
3 258 259 280
3 258 280 279
3 259 260 281
3 259 281 280
3 260 261 282
3 260 282 281
3 261 262 283
3 261 283 282
3 262 263 284
3 262 284 283
3 263 264 285
3 263 285 284
3 264 265 286
3 264 286 285
3 265 266 287
3 265 287 286
3 266 267 288
3 266 288 287
3 267 268 289
3 267 289 288
3 268 269 290
3 268 290 289
3 269 270 291
3 269 291 290
3 270 271 292
3 270 292 291
3 271 272 293
3 271 293 292
3 273 274 295
3 273 295 294
3 274 275 296
3 274 296 295
3 275 276 297
3 275 297 296
3 276 277 298
3 276 298 297
3 277 278 299
3 277 299 298
3 278 279 300
3 278 300 299
3 279 280 301
3 279 301 300
3 280 281 302
3 280 302 301
3 281 282 303
3 281 303 302
3 282 283 304
3 282 304 303
3 283 284 305
3 283 305 304
3 284 285 306
3 284 306 305
3 285 286 307
3 285 307 306
3 286 287 308
3 286 308 307
3 287 288 309
3 287 309 308
3 288 289 310
3 288 310 309
3 289 290 311
3 289 311 310
3 290 291 312
3 290 312 311
3 291 292 313
3 291 313 312
3 292 293 314
3 292 314 313
3 294 295 316
3 294 316 315
3 295 296 317
3 295 317 316
3 296 297 318
3 296 318 317
3 297 298 319
3 297 319 318
3 298 299 320
3 298 320 319
3 299 300 321
3 299 321 320
3 300 301 322
3 300 322 321
3 301 302 323
3 301 323 322
3 302 303 324
3 302 324 323
3 303 304 325
3 303 325 324
3 304 305 326
3 304 326 325
3 305 306 327
3 305 327 326
3 306 307 328
3 306 328 327
3 307 308 329
3 307 329 328
3 308 309 330
3 308 330 329
3 309 310 331
3 309 331 330
3 310 311 332
3 310 332 331
3 311 312 333
3 311 333 332
3 312 313 334
3 312 334 333
3 313 314 335
3 313 335 334
3 315 316 337
3 315 337 336
3 316 317 338
3 316 338 337
3 317 318 339
3 317 339 338
3 318 319 340
3 318 340 339
3 319 320 341
3 319 341 340
3 320 321 342
3 320 342 341
3 321 322 343
3 321 343 342
3 322 323 344
3 322 344 343
3 323 324 345
3 323 345 344
3 324 325 346
3 324 346 345
3 325 326 347
3 325 347 346
3 326 327 348
3 326 348 347
3 327 328 349
3 327 349 348
3 328 329 350
3 328 350 349
3 329 330 351
3 329 351 350
3 330 331 352
3 330 352 351
3 331 332 353
3 331 353 352
3 332 333 354
3 332 354 353
3 333 334 355
3 333 355 354
3 334 335 356
3 334 356 355
3 336 337 358
3 336 358 357
3 337 338 359
3 337 359 358
3 338 339 360
3 338 360 359
3 339 340 361
3 339 361 360
3 340 341 362
3 340 362 361
3 341 342 363
3 341 363 362
3 342 343 364
3 342 364 363
3 343 344 365
3 343 365 364
3 344 345 366
3 344 366 365
3 345 346 367
3 345 367 366
3 346 347 368
3 346 368 367
3 347 348 369
3 347 369 368
3 348 349 370
3 348 370 369
3 349 350 371
3 349 371 370
3 350 351 372
3 350 372 371
3 351 352 373
3 351 373 372
3 352 353 374
3 352 374 373
3 353 354 375
3 353 375 374
3 354 355 376
3 354 376 375
3 355 356 377
3 355 377 376
3 357 358 379
3 357 379 378
3 358 359 380
3 358 380 379
3 359 360 381
3 359 381 380
3 360 361 382
3 360 382 381
3 361 362 383
3 361 383 382
3 362 363 384
3 362 384 383
3 363 364 385
3 363 385 384
3 364 365 386
3 364 386 385
3 365 366 387
3 365 387 386
3 366 367 388
3 366 388 387
3 367 368 389
3 367 389 388
3 368 369 390
3 368 390 389
3 369 370 391
3 369 391 390
3 370 371 392
3 370 392 391
3 371 372 393
3 371 393 392
3 372 373 394
3 372 394 393
3 373 374 395
3 373 395 394
3 374 375 396
3 374 396 395
3 375 376 397
3 375 397 396
3 376 377 398
3 376 398 397
3 378 379 400
3 378 400 399
3 379 380 401
3 379 401 400
3 380 381 402
3 380 402 401
3 381 382 403
3 381 403 402
3 382 383 404
3 382 404 403
3 383 384 405
3 383 405 404
3 384 385 406
3 384 406 405
3 385 386 407
3 385 407 406
3 386 387 408
3 386 408 407
3 387 388 409
3 387 409 408
3 388 389 410
3 388 410 409
3 389 390 411
3 389 411 410
3 390 391 412
3 390 412 411
3 391 392 413
3 391 413 412
3 392 393 414
3 392 414 413
3 393 394 415
3 393 415 414
3 394 395 416
3 394 416 415
3 395 396 417
3 395 417 416
3 396 397 418
3 396 418 417
3 397 398 419
3 397 419 418
3 399 400 421
3 399 421 420
3 400 401 422
3 400 422 421
3 401 402 423
3 401 423 422
3 402 403 424
3 402 424 423
3 403 404 425
3 403 425 424
3 404 405 426
3 404 426 425
3 405 406 427
3 405 427 426
3 406 407 428
3 406 428 427
3 407 408 429
3 407 429 428
3 408 409 430
3 408 430 429
3 409 410 431
3 409 431 430
3 410 411 432
3 410 432 431
3 411 412 433
3 411 433 432
3 412 413 434
3 412 434 433
3 413 414 435
3 413 435 434
3 414 415 436
3 414 436 435
3 415 416 437
3 415 437 436
3 416 417 438
3 416 438 437
3 417 418 439
3 417 439 438
3 418 419 440
3 418 440 439
POINT_DATA 441
SCALARS sol_0 double
LOOKUP_TABLE defaul
5.694203
5.706850
5.722424
5.740568
5.760631
5.781662
5.802418
5.821380
5.836827
5.847020
5.850594
5.847020
5.836827
5.821380
5.802418
5.781662
5.760631
5.740568
5.722424
5.706850
5.694203
5.706850
5.715753
5.727659
5.742443
5.759659
5.778490
5.797728
5.815798
5.830840
5.840919
5.844483
5.840919
5.830840
5.815798
5.797728
5.778490
5.759659
5.742443
5.727659
5.715753
5.706850
5.722424
5.727659
5.735753
5.746823
5.760708
5.776833
5.794132
5.811031
5.825531
5.835458
5.839008
5.835458
5.825531
5.811031
5.794132
5.776833
5.760708
5.746823
5.735753
5.727659
5.722424
5.740568
5.742443
5.746823
5.754014
5.764152
5.777018
5.791841
5.807174
5.820926
5.830640
5.834173
5.830640
5.820926
5.807174
5.791841
5.777018
5.764152
5.754014
5.746823
5.742443
5.740568
5.760631
5.759659
5.760708
5.764152
5.770346
5.779453
5.791164
5.804383
5.817070
5.826471
5.829977
5.826471
5.817070
5.804383
5.791164
5.779453
5.770346
5.764152
5.760708
5.759659
5.760631
5.781662
5.778490
5.776833
5.777018
5.779453
5.784559
5.792539
5.802923
5.814046
5.822959
5.826425
5.822959
5.814046
5.802923
5.792539
5.784559
5.779453
5.777018
5.776833
5.778490
5.781662
5.802418
5.797728
5.794132
5.791841
5.791164
5.792539
5.796474
5.803232
5.812024
5.820121
5.823516
5.820121
5.812024
5.803232
5.796474
5.792539
5.791164
5.791841
5.794132
5.797728
5.802418
5.821380
5.815798
5.811031
5.807174
5.804383
5.802923
5.803232
5.805929
5.811366
5.818001
5.821253
5.818001
5.811366
5.805929
5.803232
5.802923
5.804383
5.807174
5.811031
5.815798
5.821380
5.836827
5.830840
5.825531
5.820926
5.817070
5.814046
5.812024
5.811366
5.812788
5.816744
5.819635
5.816744
5.812788
5.811366
5.812024
5.814046
5.817070
5.820926
5.825531
5.830840
5.836827
5.847020
5.840919
5.835458
5.830640
5.826471
5.822959
5.820121
5.818001
5.816744
5.816947
5.818665
5.816947
5.816744
5.818001
5.820121
5.822959
5.826471
5.830640
5.835458
5.840919
5.847020
5.850594
5.844483
5.839008
5.834173
5.829977
5.826425
5.823516
5.821253
5.819635
5.818665
5.818341
5.818665
5.819635
5.821253
5.823516
5.826425
5.829977
5.834173
5.839008
5.844483
5.850594
5.847020
5.840919
5.835458
5.830640
5.826471
5.822959
5.820121
5.818001
5.816744
5.816947
5.818665
5.816947
5.816744
5.818001
5.820121
5.822959
5.826471
5.830640
5.835458
5.840919
5.847020
5.836827
5.830840
5.825531
5.820926
5.817070
5.814046
5.812024
5.811366
5.812788
5.816744
5.819635
5.816744
5.812788
5.811366
5.812024
5.814046
5.817070
5.820926
5.825531
5.830840
5.836827
5.821380
5.815798
5.811031
5.807174
5.804383
5.802923
5.803232
5.805929
5.811366
5.818001
5.821253
5.818001
5.811366
5.805929
5.803232
5.802923
5.804383
5.807174
5.811031
5.815798
5.821380
5.802418
5.797728
5.794132
5.791841
5.791164
5.792539
5.796474
5.803232
5.812024
5.820121
5.823516
5.820121
5.812024
5.803232
5.796474
5.792539
5.791164
5.791841
5.794132
5.797728
5.802418
5.781662
5.778490
5.776833
5.777018
5.779453
5.784559
5.792539
5.802923
5.814046
5.822959
5.826425
5.822959
5.814046
5.802923
5.792539
5.784559
5.779453
5.777018
5.776833
5.778490
5.781662
5.760631
5.759659
5.760708
5.764152
5.770346
5.779453
5.791164
5.804383
5.817070
5.826471
5.829977
5.826471
5.817070
5.804383
5.791164
5.779453
5.770346
5.764152
5.760708
5.759659
5.760631
5.740568
5.742443
5.746823
5.754014
5.764152
5.777018
5.791841
5.807174
5.820926
5.830640
5.834173
5.830640
5.820926
5.807174
5.791841
5.777018
5.764152
5.754014
5.746823
5.742443
5.740568
5.722424
5.727659
5.735753
5.746823
5.760708
5.776833
5.794132
5.811031
5.825531
5.835458
5.839008
5.835458
5.825531
5.811031
5.794132
5.776833
5.760708
5.746823
5.735753
5.727659
5.722424
5.706850
5.715753
5.727659
5.742443
5.759659
5.778490
5.797728
5.815798
5.830840
5.840919
5.844483
5.840919
5.830840
5.815798
5.797728
5.778490
5.759659
5.742443
5.727659
5.715753
5.706850
5.694203
5.706850
5.722424
5.740568
5.760631
5.781662
5.802418
5.821380
5.836827
5.847020
5.850594
5.847020
5.836827
5.821380
5.802418
5.781662
5.760631
5.740568
5.722424
5.706850
5.694203
