# vtk DataFile Version 2.0
this shit
ASCII
DATASET POLYDATA
POINTS 441 double
-0.628319 -0.628319 0.000000
-0.565487 -0.628319 0.000000
-0.502655 -0.628319 0.000000
-0.439823 -0.628319 0.000000
-0.376991 -0.628319 0.000000
-0.314159 -0.628319 0.000000
-0.251327 -0.628319 0.000000
-0.188496 -0.628319 0.000000
-0.125664 -0.628319 0.000000
-0.062832 -0.628319 0.000000
0.000000 -0.628319 0.000000
0.062832 -0.628319 0.000000
0.125664 -0.628319 0.000000
0.188496 -0.628319 0.000000
0.251327 -0.628319 0.000000
0.314159 -0.628319 0.000000
0.376991 -0.628319 0.000000
0.439823 -0.628319 0.000000
0.502655 -0.628319 0.000000
0.565487 -0.628319 0.000000
0.628319 -0.628319 0.000000
-0.628319 -0.565487 0.000000
-0.565487 -0.565487 0.000000
-0.502655 -0.565487 0.000000
-0.439823 -0.565487 0.000000
-0.376991 -0.565487 0.000000
-0.314159 -0.565487 0.000000
-0.251327 -0.565487 0.000000
-0.188496 -0.565487 0.000000
-0.125664 -0.565487 0.000000
-0.062832 -0.565487 0.000000
0.000000 -0.565487 0.000000
0.062832 -0.565487 0.000000
0.125664 -0.565487 0.000000
0.188496 -0.565487 0.000000
0.251327 -0.565487 0.000000
0.314159 -0.565487 0.000000
0.376991 -0.565487 0.000000
0.439823 -0.565487 0.000000
0.502655 -0.565487 0.000000
0.565487 -0.565487 0.000000
0.628319 -0.565487 0.000000
-0.628319 -0.502655 0.000000
-0.565487 -0.502655 0.000000
-0.502655 -0.502655 0.000000
-0.439823 -0.502655 0.000000
-0.376991 -0.502655 0.000000
-0.314159 -0.502655 0.000000
-0.251327 -0.502655 0.000000
-0.188496 -0.502655 0.000000
-0.125664 -0.502655 0.000000
-0.062832 -0.502655 0.000000
0.000000 -0.502655 0.000000
0.062832 -0.502655 0.000000
0.125664 -0.502655 0.000000
0.188496 -0.502655 0.000000
0.251327 -0.502655 0.000000
0.314159 -0.502655 0.000000
0.376991 -0.502655 0.000000
0.439823 -0.502655 0.000000
0.502655 -0.502655 0.000000
0.565487 -0.502655 0.000000
0.628319 -0.502655 0.000000
-0.628319 -0.439823 0.000000
-0.565487 -0.439823 0.000000
-0.502655 -0.439823 0.000000
-0.439823 -0.439823 0.000000
-0.376991 -0.439823 0.000000
-0.314159 -0.439823 0.000000
-0.251327 -0.439823 0.000000
-0.188496 -0.439823 0.000000
-0.125664 -0.439823 0.000000
-0.062832 -0.439823 0.000000
0.000000 -0.439823 0.000000
0.062832 -0.439823 0.000000
0.125664 -0.439823 0.000000
0.188496 -0.439823 0.000000
0.251327 -0.439823 0.000000
0.314159 -0.439823 0.000000
0.376991 -0.439823 0.000000
0.439823 -0.439823 0.000000
0.502655 -0.439823 0.000000
0.565487 -0.439823 0.000000
0.628319 -0.439823 0.000000
-0.628319 -0.376991 0.000000
-0.565487 -0.376991 0.000000
-0.502655 -0.376991 0.000000
-0.439823 -0.376991 0.000000
-0.376991 -0.376991 0.000000
-0.314159 -0.376991 0.000000
-0.251327 -0.376991 0.000000
-0.188496 -0.376991 0.000000
-0.125664 -0.376991 0.000000
-0.062832 -0.376991 0.000000
0.000000 -0.376991 0.000000
0.062832 -0.376991 0.000000
0.125664 -0.376991 0.000000
0.188496 -0.376991 0.000000
0.251327 -0.376991 0.000000
0.314159 -0.376991 0.000000
0.376991 -0.376991 0.000000
0.439823 -0.376991 0.000000
0.502655 -0.376991 0.000000
0.565487 -0.376991 0.000000
0.628319 -0.376991 0.000000
-0.628319 -0.314159 0.000000
-0.565487 -0.314159 0.000000
-0.502655 -0.314159 0.000000
-0.439823 -0.314159 0.000000
-0.376991 -0.314159 0.000000
-0.314159 -0.314159 0.000000
-0.251327 -0.314159 0.000000
-0.188496 -0.314159 0.000000
-0.125664 -0.314159 0.000000
-0.062832 -0.314159 0.000000
0.000000 -0.314159 0.000000
0.062832 -0.314159 0.000000
0.125664 -0.314159 0.000000
0.188496 -0.314159 0.000000
0.251327 -0.314159 0.000000
0.314159 -0.314159 0.000000
0.376991 -0.314159 0.000000
0.439823 -0.314159 0.000000
0.502655 -0.314159 0.000000
0.565487 -0.314159 0.000000
0.628319 -0.314159 0.000000
-0.628319 -0.251327 0.000000
-0.565487 -0.251327 0.000000
-0.502655 -0.251327 0.000000
-0.439823 -0.251327 0.000000
-0.376991 -0.251327 0.000000
-0.314159 -0.251327 0.000000
-0.251327 -0.251327 0.000000
-0.188496 -0.251327 0.000000
-0.125664 -0.251327 0.000000
-0.062832 -0.251327 0.000000
0.000000 -0.251327 0.000000
0.062832 -0.251327 0.000000
0.125664 -0.251327 0.000000
0.188496 -0.251327 0.000000
0.251327 -0.251327 0.000000
0.314159 -0.251327 0.000000
0.376991 -0.251327 0.000000
0.439823 -0.251327 0.000000
0.502655 -0.251327 0.000000
0.565487 -0.251327 0.000000
0.628319 -0.251327 0.000000
-0.628319 -0.188496 0.000000
-0.565487 -0.188496 0.000000
-0.502655 -0.188496 0.000000
-0.439823 -0.188496 0.000000
-0.376991 -0.188496 0.000000
-0.314159 -0.188496 0.000000
-0.251327 -0.188496 0.000000
-0.188496 -0.188496 0.000000
-0.125664 -0.188496 0.000000
-0.062832 -0.188496 0.000000
0.000000 -0.188496 0.000000
0.062832 -0.188496 0.000000
0.125664 -0.188496 0.000000
0.188496 -0.188496 0.000000
0.251327 -0.188496 0.000000
0.314159 -0.188496 0.000000
0.376991 -0.188496 0.000000
0.439823 -0.188496 0.000000
0.502655 -0.188496 0.000000
0.565487 -0.188496 0.000000
0.628319 -0.188496 0.000000
-0.628319 -0.125664 0.000000
-0.565487 -0.125664 0.000000
-0.502655 -0.125664 0.000000
-0.439823 -0.125664 0.000000
-0.376991 -0.125664 0.000000
-0.314159 -0.125664 0.000000
-0.251327 -0.125664 0.000000
-0.188496 -0.125664 0.000000
-0.125664 -0.125664 0.000000
-0.062832 -0.125664 0.000000
0.000000 -0.125664 0.000000
0.062832 -0.125664 0.000000
0.125664 -0.125664 0.000000
0.188496 -0.125664 0.000000
0.251327 -0.125664 0.000000
0.314159 -0.125664 0.000000
0.376991 -0.125664 0.000000
0.439823 -0.125664 0.000000
0.502655 -0.125664 0.000000
0.565487 -0.125664 0.000000
0.628319 -0.125664 0.000000
-0.628319 -0.062832 0.000000
-0.565487 -0.062832 0.000000
-0.502655 -0.062832 0.000000
-0.439823 -0.062832 0.000000
-0.376991 -0.062832 0.000000
-0.314159 -0.062832 0.000000
-0.251327 -0.062832 0.000000
-0.188496 -0.062832 0.000000
-0.125664 -0.062832 0.000000
-0.062832 -0.062832 0.000000
0.000000 -0.062832 0.000000
0.062832 -0.062832 0.000000
0.125664 -0.062832 0.000000
0.188496 -0.062832 0.000000
0.251327 -0.062832 0.000000
0.314159 -0.062832 0.000000
0.376991 -0.062832 0.000000
0.439823 -0.062832 0.000000
0.502655 -0.062832 0.000000
0.565487 -0.062832 0.000000
0.628319 -0.062832 0.000000
-0.628319 0.000000 0.000000
-0.565487 0.000000 0.000000
-0.502655 0.000000 0.000000
-0.439823 0.000000 0.000000
-0.376991 0.000000 0.000000
-0.314159 0.000000 0.000000
-0.251327 0.000000 0.000000
-0.188496 0.000000 0.000000
-0.125664 0.000000 0.000000
-0.062832 0.000000 0.000000
0.000000 0.000000 0.000000
0.062832 0.000000 0.000000
0.125664 0.000000 0.000000
0.188496 0.000000 0.000000
0.251327 0.000000 0.000000
0.314159 0.000000 0.000000
0.376991 0.000000 0.000000
0.439823 0.000000 0.000000
0.502655 0.000000 0.000000
0.565487 0.000000 0.000000
0.628319 0.000000 0.000000
-0.628319 0.062832 0.000000
-0.565487 0.062832 0.000000
-0.502655 0.062832 0.000000
-0.439823 0.062832 0.000000
-0.376991 0.062832 0.000000
-0.314159 0.062832 0.000000
-0.251327 0.062832 0.000000
-0.188496 0.062832 0.000000
-0.125664 0.062832 0.000000
-0.062832 0.062832 0.000000
0.000000 0.062832 0.000000
0.062832 0.062832 0.000000
0.125664 0.062832 0.000000
0.188496 0.062832 0.000000
0.251327 0.062832 0.000000
0.314159 0.062832 0.000000
0.376991 0.062832 0.000000
0.439823 0.062832 0.000000
0.502655 0.062832 0.000000
0.565487 0.062832 0.000000
0.628319 0.062832 0.000000
-0.628319 0.125664 0.000000
-0.565487 0.125664 0.000000
-0.502655 0.125664 0.000000
-0.439823 0.125664 0.000000
-0.376991 0.125664 0.000000
-0.314159 0.125664 0.000000
-0.251327 0.125664 0.000000
-0.188496 0.125664 0.000000
-0.125664 0.125664 0.000000
-0.062832 0.125664 0.000000
0.000000 0.125664 0.000000
0.062832 0.125664 0.000000
0.125664 0.125664 0.000000
0.188496 0.125664 0.000000
0.251327 0.125664 0.000000
0.314159 0.125664 0.000000
0.376991 0.125664 0.000000
0.439823 0.125664 0.000000
0.502655 0.125664 0.000000
0.565487 0.125664 0.000000
0.628319 0.125664 0.000000
-0.628319 0.188496 0.000000
-0.565487 0.188496 0.000000
-0.502655 0.188496 0.000000
-0.439823 0.188496 0.000000
-0.376991 0.188496 0.000000
-0.314159 0.188496 0.000000
-0.251327 0.188496 0.000000
-0.188496 0.188496 0.000000
-0.125664 0.188496 0.000000
-0.062832 0.188496 0.000000
0.000000 0.188496 0.000000
0.062832 0.188496 0.000000
0.125664 0.188496 0.000000
0.188496 0.188496 0.000000
0.251327 0.188496 0.000000
0.314159 0.188496 0.000000
0.376991 0.188496 0.000000
0.439823 0.188496 0.000000
0.502655 0.188496 0.000000
0.565487 0.188496 0.000000
0.628319 0.188496 0.000000
-0.628319 0.251327 0.000000
-0.565487 0.251327 0.000000
-0.502655 0.251327 0.000000
-0.439823 0.251327 0.000000
-0.376991 0.251327 0.000000
-0.314159 0.251327 0.000000
-0.251327 0.251327 0.000000
-0.188496 0.251327 0.000000
-0.125664 0.251327 0.000000
-0.062832 0.251327 0.000000
0.000000 0.251327 0.000000
0.062832 0.251327 0.000000
0.125664 0.251327 0.000000
0.188496 0.251327 0.000000
0.251327 0.251327 0.000000
0.314159 0.251327 0.000000
0.376991 0.251327 0.000000
0.439823 0.251327 0.000000
0.502655 0.251327 0.000000
0.565487 0.251327 0.000000
0.628319 0.251327 0.000000
-0.628319 0.314159 0.000000
-0.565487 0.314159 0.000000
-0.502655 0.314159 0.000000
-0.439823 0.314159 0.000000
-0.376991 0.314159 0.000000
-0.314159 0.314159 0.000000
-0.251327 0.314159 0.000000
-0.188496 0.314159 0.000000
-0.125664 0.314159 0.000000
-0.062832 0.314159 0.000000
0.000000 0.314159 0.000000
0.062832 0.314159 0.000000
0.125664 0.314159 0.000000
0.188496 0.314159 0.000000
0.251327 0.314159 0.000000
0.314159 0.314159 0.000000
0.376991 0.314159 0.000000
0.439823 0.314159 0.000000
0.502655 0.314159 0.000000
0.565487 0.314159 0.000000
0.628319 0.314159 0.000000
-0.628319 0.376991 0.000000
-0.565487 0.376991 0.000000
-0.502655 0.376991 0.000000
-0.439823 0.376991 0.000000
-0.376991 0.376991 0.000000
-0.314159 0.376991 0.000000
-0.251327 0.376991 0.000000
-0.188496 0.376991 0.000000
-0.125664 0.376991 0.000000
-0.062832 0.376991 0.000000
0.000000 0.376991 0.000000
0.062832 0.376991 0.000000
0.125664 0.376991 0.000000
0.188496 0.376991 0.000000
0.251327 0.376991 0.000000
0.314159 0.376991 0.000000
0.376991 0.376991 0.000000
[...]
POINT_DATA 441
SCALARS sol_0 double
LOOKUP_TABLE defaul
0.775841 0.775841 0.775841 0.775841 0.854993 0.854993 1.105482 1.105482 1.858009 1.858009 1.959033 1.959033 2.022646 2.022646 2.022646
0.753928 0.753928 0.773214 0.773214 0.879037 0.879037 1.109861 1.109861 1.846242 1.846242 1.946118 1.946118 2.015426 2.015426 2.033814
0.715343 0.715343 0.765872 0.765872 0.924089 0.924089 1.122443 1.122443 1.817574 1.817574 1.906459 1.906459 1.998236 1.998236 2.060476
0.675803 0.675803 0.755155 0.755155 0.974641 0.974641 1.141821 1.141821 1.781153 1.781153 1.848135 1.848135 1.982468 1.982468 2.092588
0.638502 0.638502 0.742664 0.742664 1.027852 1.027852 1.166247 1.166247 1.741796 1.741796 1.782584 1.782584 1.969748 1.969748 2.120472
0.604740 0.604740 0.729865 0.729865 1.082892 1.082892 1.193951 1.193951 1.701920 1.701920 1.715106 1.715106 1.959245 1.959245 2.138392
0.575463 0.575463 0.717947 0.717947 1.139374 1.139374 1.223152 1.223152 1.647716 1.647716 1.663212 1.663212 1.950656 1.950656 2.152970
0.551533 0.551533 0.707816 0.707816 1.196984 1.196984 1.251814 1.251814 1.581350 1.581350 1.627458 1.627458 1.943930 1.943930 2.157023
0.533743 0.533743 0.700132 0.700132 1.255190 1.255190 1.277214 1.277214 1.516795 1.516795 1.597154 1.597154 1.939089 1.939089 2.158816
0.522765 0.522765 0.695346 0.695346 1.295516 1.295516 1.311970 1.311970 1.456179 1.456179 1.575973 1.575973 1.936167 1.936167 2.159602
0.519051 0.519051 0.693722 0.693722 1.302341 1.302341 1.348401 1.348401 1.418467 1.418467 1.568199 1.568199 1.935190 1.935190 2.159826
0.522765 0.522765 0.695346 0.695346 1.295516 1.295516 1.311970 1.311970 1.456179 1.456179 1.575973 1.575973 1.936167 1.936167 2.159602
0.533743 0.533743 0.700132 0.700132 1.255190 1.255190 1.277214 1.277214 1.516795 1.516795 1.597154 1.597154 1.939089 1.939089 2.158816
0.551533 0.551533 0.707816 0.707816 1.196984 1.196984 1.251814 1.251814 1.581350 1.581350 1.627458 1.627458 1.943930 1.943930 2.157023
0.575463 0.575463 0.717947 0.717947 1.139374 1.139374 1.223152 1.223152 1.647716 1.647716 1.663212 1.663212 1.950656 1.950656 2.152970
0.604740 0.604740 0.729865 0.729865 1.082892 1.082892 1.193951 1.193951 1.701920 1.701920 1.715106 1.715106 1.959245 1.959245 2.138392
0.638502 0.638502 0.742664 0.742664 1.027852 1.027852 1.166247 1.166247 1.741796 1.741796 1.782584 1.782584 1.969748 1.969748 2.120472
0.675803 0.675803 0.755155 0.755155 0.974641 0.974641 1.141821 1.141821 1.781153 1.781153 1.848135 1.848135 1.982468 1.982468 2.092588
0.715343 0.715343 0.765872 0.765872 0.924089 0.924089 1.122443 1.122443 1.817574 1.817574 1.906459 1.906459 1.998236 1.998236 2.060476
0.753928 0.753928 0.773214 0.773214 0.879037 0.879037 1.109861 1.109861 1.846242 1.846242 1.946118 1.946118 2.015426 2.015426 2.033814
0.775841 0.775841 0.775841 0.775841 0.854993 0.854993 1.105482 1.105482 1.858009 1.858009 1.959033 1.959033 2.022646 2.022646 2.022646
0.753928 0.753928 0.773214 0.773214 0.879037 0.879037 1.109861 1.109861 1.846242 1.846242 1.946118 1.946118 2.015426 2.015426 2.033814
0.730947 0.730947 0.780991 0.780991 0.893507 0.893507 1.114442 1.114442 1.835191 1.835191 1.936505 1.936505 2.021066 2.021066 2.025126
0.694403 0.694403 0.780386 0.780386 0.929120 0.929120 1.127572 1.127572 1.807625 1.807625 1.903439 1.903439 1.996971 1.996971 2.041043
0.656373 0.656373 0.772127 0.772127 0.974732 0.974732 1.147740 1.147740 1.771542 1.771542 1.849843 1.849843 1.975690 1.975690 2.063182
0.619880 0.619880 0.760531 0.760531 1.025016 1.025016 1.173141 1.173141 1.730987 1.730987 1.788052 1.788052 1.960569 1.960569 2.085622
0.586469 0.586469 0.748069 0.748069 1.077841 1.077841 1.202068 1.202068 1.686387 1.686387 1.726768 1.726768 1.948877 1.948877 2.107368
0.557268 0.557268 0.736283 0.736283 1.132040 1.132040 1.232991 1.232991 1.634376 1.634376 1.673640 1.673640 1.939612 1.939612 2.127976
0.533264 0.533264 0.726209 0.726209 1.186307 1.186307 1.264612 1.264612 1.574898 1.574898 1.631696 1.631696 1.932475 1.932475 2.146599
0.515346 0.515346 0.718553 0.718553 1.237436 1.237436 1.296707 1.296707 1.513603 1.513603 1.598739 1.598739 1.927384 1.927384 2.161598
0.504259 0.504259 0.713782 0.713782 1.275665 1.275665 1.333161 1.333161 1.454889 1.454889 1.576189 1.576189 1.924327 1.924327 2.170365
0.500503 0.500503 0.712163 0.712163 1.288952 1.288952 1.364107 1.364107 1.416716 1.416716 1.567942 1.567942 1.923307 1.923307 2.172617
0.504259 0.504259 0.713782 0.713782 1.275665 1.275665 1.333161 1.333161 1.454889 1.454889 1.576189 1.576189 1.924327 1.924327 2.170365
0.515346 0.515346 0.718553 0.718553 1.237436 1.237436 1.296707 1.296707 1.513603 1.513603 1.598739 1.598739 1.927384 1.927384 2.161598
0.533264 0.533264 0.726209 0.726209 1.186307 1.186307 1.264612 1.264612 1.574898 1.574898 1.631696 1.631696 1.932475 1.932475 2.146599
0.557268 0.557268 0.736283 0.736283 1.132040 1.132040 1.232991 1.232991 1.634376 1.634376 1.673640 1.673640 1.939612 1.939612 2.127976
0.586469 0.586469 0.748069 0.748069 1.077841 1.077841 1.202068 1.202068 1.686387 1.686387 1.726768 1.726768 1.948877 1.948877 2.107368
0.619880 0.619880 0.760531 0.760531 1.025016 1.025016 1.173141 1.173141 1.730987 1.730987 1.788052 1.788052 1.960569 1.960569 2.085622
0.656373 0.656373 0.772127 0.772127 0.974732 0.974732 1.147740 1.147740 1.771542 1.771542 1.849843 1.849843 1.975690 1.975690 2.063182
0.694403 0.694403 0.780386 0.780386 0.929120 0.929120 1.127572 1.127572 1.807625 1.807625 1.903439 1.903439 1.996971 1.996971 2.041043
0.730947 0.730947 0.780991 0.780991 0.893507 0.893507 1.114442 1.114442 1.835191 1.835191 1.936505 1.936505 2.021066 2.021066 2.025126
0.753928 0.753928 0.773214 0.773214 0.879037 0.879037 1.109861 1.109861 1.846242 1.846242 1.946118 1.946118 2.015426 2.015426 2.033814
0.715343 0.715343 0.765872 0.765872 0.924089 0.924089 1.122443 1.122443 1.817574 1.817574 1.906459 1.906459 1.998236 1.998236 2.060476
0.694403 0.694403 0.780386 0.780386 0.929120 0.929120 1.127572 1.127572 1.807625 1.807625 1.903439 1.903439 1.996971 1.996971 2.041043
0.657800 0.657800 0.796246 0.796246 0.946570 0.946570 1.142127 1.142127 1.782224 1.782224 1.886281 1.886281 1.985029 1.985029 2.015838
0.619341 0.619341 0.800228 0.800228 0.977942 0.977942 1.164176 1.164176 1.747712 1.747712 1.847028 1.847028 1.957911 1.957911 2.024039
0.582178 0.582178 0.795242 0.795242 1.019474 1.019474 1.191641 1.191641 1.707403 1.707403 1.793901 1.793901 1.938258 1.938258 2.041445
0.547881 0.547881 0.786178 0.786178 1.066663 1.066663 1.222772 1.222772 1.662411 1.662411 1.738036 1.738036 1.924071 1.924071 2.061586
0.517660 0.517660 0.776224 0.776224 1.116518 1.116518 1.256154 1.256154 1.612889 1.612889 1.685625 1.685625 1.913260 1.913260 2.082336
0.492626 0.492626 0.767197 0.767197 1.166698 1.166698 1.290607 1.290607 1.559590 1.559590 1.639805 1.639805 1.905110 1.905110 2.102260
0.473816 0.473816 0.760151 0.760151 1.213926 1.213926 1.325314 1.325314 1.504776 1.504776 1.602406 1.602406 1.899370 1.899370 2.119718
0.462118 0.462118 0.755705 0.755705 1.251314 1.251314 1.360807 1.360807 1.451758 1.451758 1.576408 1.576408 1.895949 1.895949 2.132337
0.458145 0.458145 0.754188 0.754188 1.266451 1.266451 1.393558 1.393558 1.411479 1.411479 1.566760 1.566760 1.894811 1.894811 2.137098
0.462118 0.462118 0.755705 0.755705 1.251314 1.251314 1.360807 1.360807 1.451758 1.451758 1.576408 1.576408 1.895949 1.895949 2.132337
0.473816 0.473816 0.760151 0.760151 1.213926 1.213926 1.325314 1.325314 1.504776 1.504776 1.602406 1.602406 1.899370 1.899370 2.119718
0.492626 0.492626 0.767197 0.767197 1.166698 1.166698 1.290607 1.290607 1.559590 1.559590 1.639805 1.639805 1.905110 1.905110 2.102260
0.517660 0.517660 0.776224 0.776224 1.116518 1.116518 1.256154 1.256154 1.612889 1.612889 1.685625 1.685625 1.913260 1.913260 2.082336
0.547881 0.547881 0.786178 0.786178 1.066663 1.066663 1.222772 1.222772 1.662411 1.662411 1.738036 1.738036 1.924071 1.924071 2.061586
0.582178 0.582178 0.795242 0.795242 1.019474 1.019474 1.191641 1.191641 1.707403 1.707403 1.793901 1.793901 1.938258 1.938258 2.041445
0.619341 0.619341 0.800228 0.800228 0.977942 0.977942 1.164176 1.164176 1.747712 1.747712 1.847028 1.847028 1.957911 1.957911 2.024039
0.657800 0.657800 0.796246 0.796246 0.946570 0.946570 1.142127 1.142127 1.782224 1.782224 1.886281 1.886281 1.985029 1.985029 2.015838
0.694403 0.694403 0.780386 0.780386 0.929120 0.929120 1.127572 1.127572 1.807625 1.807625 1.903439 1.903439 1.996971 1.996971 2.041043
0.715343 0.715343 0.765872 0.765872 0.924089 0.924089 1.122443 1.122443 1.817574 1.817574 1.906459 1.906459 1.998236 1.998236 2.060476
0.675803 0.675803 0.755155 0.755155 0.974641 0.974641 1.141821 1.141821 1.781153 1.781153 1.848135 1.848135 1.982468 1.982468 2.092588
0.656373 0.656373 0.772127 0.772127 0.974732 0.974732 1.147740 1.147740 1.771542 1.771542 1.849843 1.849843 1.975690 1.975690 2.063182
0.619341 0.619341 0.800228 0.800228 0.977942 0.977942 1.164176 1.164176 1.747712 1.747712 1.847028 1.847028 1.957911 1.957911 2.024039
0.579370 0.579370 0.821052 0.821052 0.990926 0.990926 1.188378 1.188378 1.715467 1.715467 1.827362 1.827362 1.933628 1.933628 2.006584
0.540297 0.540297 0.829431 0.829431 1.017781 1.017781 1.217825 1.217825 1.677281 1.677281 1.788941 1.788941 1.912003 1.912003 2.008947
0.503886 0.503886 0.828246 0.828246 1.055945 1.055945 1.250664 1.250664 1.634346 1.634346 1.741240 1.741240 1.895532 1.895532 2.021316
0.471482 0.471482 0.822588 0.822588 1.100428 1.100428 1.285479 1.285479 1.587770 1.587770 1.692335 1.692335 1.882838 1.882838 2.037857
0.444370 0.444370 0.815950 0.815950 1.147157 1.147157 1.320891 1.320891 1.539262 1.539262 1.646284 1.646284 1.873229 1.873229 2.055278
0.423808 0.423808 0.810251 0.810251 1.192186 1.192186 1.355040 1.355040 1.491711 1.491711 1.605885 1.605885 1.866462 1.866462 2.071007
0.410926 0.410926 0.806503 0.806503 1.228882 1.228882 1.384914 1.384914 1.450220 1.450220 1.575576 1.575576 1.862432 1.862432 2.082318
0.406534 0.406534 0.805204 0.805204 1.244373 1.244373 1.402716 1.402716 1.427213 1.427213 1.563552 1.563552 1.861094 1.861094 2.086507
0.410926 0.410926 0.806503 0.806503 1.228882 1.228882 1.384914 1.384914 1.450220 1.450220 1.575576 1.575576 1.862432 1.862432 2.082318
0.423808 0.423808 0.810251 0.810251 1.192186 1.192186 1.355040 1.355040 1.491711 1.491711 1.605885 1.605885 1.866462 1.866462 2.071007
0.444370 0.444370 0.815950 0.815950 1.147157 1.147157 1.320891 1.320891 1.539262 1.539262 1.646284 1.646284 1.873229 1.873229 2.055278
0.471482 0.471482 0.822588 0.822588 1.100428 1.100428 1.285479 1.285479 1.587770 1.587770 1.692335 1.692335 1.882838 1.882838 2.037857
0.503886 0.503886 0.828246 0.828246 1.055945 1.055945 1.250664 1.250664 1.634346 1.634346 1.741240 1.741240 1.895532 1.895532 2.021316
0.540297 0.540297 0.829431 0.829431 1.017781 1.017781 1.217825 1.217825 1.677281 1.677281 1.788941 1.788941 1.912003 1.912003 2.008947
0.579370 0.579370 0.821052 0.821052 0.990926 0.990926 1.188378 1.188378 1.715467 1.715467 1.827362 1.827362 1.933628 1.933628 2.006584
0.619341 0.619341 0.800228 0.800228 0.977942 0.977942 1.164176 1.164176 1.747712 1.747712 1.847028 1.847028 1.957911 1.957911 2.024039
0.656373 0.656373 0.772127 0.772127 0.974732 0.974732 1.147740 1.147740 1.771542 1.771542 1.849843 1.849843 1.975690 1.975690 2.063182
0.675803 0.675803 0.755155 0.755155 0.974641 0.974641 1.141821 1.141821 1.781153 1.781153 1.848135 1.848135 1.982468 1.982468 2.092588
0.638502 0.638502 0.742664 0.742664 1.027852 1.027852 1.166247 1.166247 1.741796 1.741796 1.782584 1.782584 1.969748 1.969748 2.120472
0.619880 0.619880 0.760531 0.760531 1.025016 1.025016 1.173141 1.173141 1.730987 1.730987 1.788052 1.788052 1.960569 1.960569 2.085622
0.582178 0.582178 0.795242 0.795242 1.019474 1.019474 1.191641 1.191641 1.707403 1.707403 1.793901 1.793901 1.938258 1.938258 2.041445
0.540297 0.540297 0.829431 0.829431 1.017781 1.017781 1.217825 1.217825 1.677281 1.677281 1.788941 1.788941 1.912003 1.912003 2.008947
0.498721 0.498721 0.854597 0.854597 1.027129 1.027129 1.248765 1.248765 1.641932 1.641932 1.767428 1.767428 1.889061 1.889061 1.992694
0.459462 0.459462 0.866898 0.866898 1.051451 1.051451 1.282624 1.282624 1.602000 1.602000 1.732212 1.732212 1.870968 1.870968 1.990953
0.424044 0.424044 0.869182 0.869182 1.087812 1.087812 1.318007 1.318007 1.558713 1.558713 1.690675 1.690675 1.856334 1.856334 1.998512
0.393983 0.393983 0.866753 0.866753 1.130229 1.130229 1.353154 1.353154 1.514633 1.514633 1.647952 1.647952 1.844780 1.844780 2.010243
0.370866 0.370866 0.863260 0.863260 1.173050 1.173050 1.383621 1.383621 1.475868 1.475868 1.607199 1.607199 1.836446 1.836446 2.022195
0.356218 0.356218 0.860594 0.860594 1.208923 1.208923 1.394949 1.394949 1.459405 1.459405 1.572816 1.572816 1.831429 1.831429 2.031123
0.351190 0.351190 0.859622 0.859622 1.224394 1.224394 1.390125 1.390125 1.463378 1.463378 1.556990 1.556990 1.829756 1.829756 2.034454
0.356218 0.356218 0.860594 0.860594 1.208923 1.208923 1.394949 1.394949 1.459405 1.459405 1.572816 1.572816 1.831429 1.831429 2.031123
0.370866 0.370866 0.863260 0.863260 1.173050 1.173050 1.383621 1.383621 1.475868 1.475868 1.607199 1.607199 1.836446 1.836446 2.022195
0.393983 0.393983 0.866753 0.866753 1.130229 1.130229 1.353154 1.353154 1.514633 1.514633 1.647952 1.647952 1.844780 1.844780 2.010243
0.424044 0.424044 0.869182 0.869182 1.087812 1.087812 1.318007 1.318007 1.558713 1.558713 1.690675 1.690675 1.856334 1.856334 1.998512
0.459462 0.459462 0.866898 0.866898 1.051451 1.051451 1.282624 1.282624 1.602000 1.602000 1.732212 1.732212 1.870968 1.870968 1.990953
0.498721 0.498721 0.854597 0.854597 1.027129 1.027129 1.248765 1.248765 1.641932 1.641932 1.767428 1.767428 1.889061 1.889061 1.992694
0.540297 0.540297 0.829431 0.829431 1.017781 1.017781 1.217825 1.217825 1.677281 1.677281 1.788941 1.788941 1.912003 1.912003 2.008947
0.582178 0.582178 0.795242 0.795242 1.019474 1.019474 1.191641 1.191641 1.707403 1.707403 1.793901 1.793901 1.938258 1.938258 2.041445
0.619880 0.619880 0.760531 0.760531 1.025016 1.025016 1.173141 1.173141 1.730987 1.730987 1.788052 1.788052 1.960569 1.960569 2.085622
0.638502 0.638502 0.742664 0.742664 1.027852 1.027852 1.166247 1.166247 1.741796 1.741796 1.782584 1.782584 1.969748 1.969748 2.120472
0.604740 0.604740 0.729865 0.729865 1.082892 1.082892 1.193951 1.193951 1.701920 1.701920 1.715106 1.715106 1.959245 1.959245 2.138392
0.586469 0.586469 0.748069 0.748069 1.077841 1.077841 1.202068 1.202068 1.686387 1.686387 1.726768 1.726768 1.948877 1.948877 2.107368
0.547881 0.547881 0.786178 0.786178 1.066663 1.066663 1.222772 1.222772 1.662411 1.662411 1.738036 1.738036 1.924071 1.924071 2.061586
0.503886 0.503886 0.828246 0.828246 1.055945 1.055945 1.250664 1.250664 1.634346 1.634346 1.741240 1.741240 1.895532 1.895532 2.021316
0.459462 0.459462 0.866898 0.866898 1.051451 1.051451 1.282624 1.282624 1.602000 1.602000 1.732212 1.732212 1.870968 1.870968 1.990953
0.416834 0.416834 0.895927 0.895927 1.059107 1.059107 1.316980 1.316980 1.565321 1.565321 1.710084 1.710084 1.852338 1.852338 1.972885
0.377687 0.377687 0.911558 0.911558 1.082368 1.082368 1.352409 1.352409 1.525279 1.525279 1.678892 1.678892 1.837069 1.837069 1.966827
0.343795 0.343795 0.916659 0.916659 1.117568 1.117568 1.386327 1.386327 1.485396 1.485396 1.643171 1.643171 1.823909 1.823909 1.969121
0.317193 0.317193 0.916855 0.916855 1.157059 1.157059 1.404667 1.404667 1.462082 1.462082 1.605739 1.605739 1.813653 1.813653 1.974965
0.300031 0.300031 0.915857 0.915857 1.191723 1.191723 1.386245 1.386245 1.481100 1.481100 1.569221 1.569221 1.807205 1.807205 1.980315
0.294077 0.294077 0.915366 0.915366 1.207036 1.207036 1.372969 1.372969 1.501479 1.501479 1.546443 1.546443 1.805015 1.805015 1.982434
0.300031 0.300031 0.915857 0.915857 1.191723 1.191723 1.386245 1.386245 1.481100 1.481100 1.569221 1.569221 1.807205 1.807205 1.980315
0.317193 0.317193 0.916855 0.916855 1.157059 1.157059 1.404667 1.404667 1.462082 1.462082 1.605739 1.605739 1.813653 1.813653 1.974965
0.343795 0.343795 0.916659 0.916659 1.117568 1.117568 1.386327 1.386327 1.485396 1.485396 1.643171 1.643171 1.823909 1.823909 1.969121
0.377687 0.377687 0.911558 0.911558 1.082368 1.082368 1.352409 1.352409 1.525279 1.525279 1.678892 1.678892 1.837069 1.837069 1.966827
0.416834 0.416834 0.895927 0.895927 1.059107 1.059107 1.316980 1.316980 1.565321 1.565321 1.710084 1.710084 1.852338 1.852338 1.972885
0.459462 0.459462 0.866898 0.866898 1.051451 1.051451 1.282624 1.282624 1.602000 1.602000 1.732212 1.732212 1.870968 1.870968 1.990953
0.503886 0.503886 0.828246 0.828246 1.055945 1.055945 1.250664 1.250664 1.634346 1.634346 1.741240 1.741240 1.895532 1.895532 2.021316
0.547881 0.547881 0.786178 0.786178 1.066663 1.066663 1.222772 1.222772 1.662411 1.662411 1.738036 1.738036 1.924071 1.924071 2.061586
0.586469 0.586469 0.748069 0.748069 1.077841 1.077841 1.202068 1.202068 1.686387 1.686387 1.726768 1.726768 1.948877 1.948877 2.107368
0.604740 0.604740 0.729865 0.729865 1.082892 1.082892 1.193951 1.193951 1.701920 1.701920 1.715106 1.715106 1.959245 1.959245 2.138392
0.575463 0.575463 0.717947 0.717947 1.139374 1.139374 1.223152 1.223152 1.647716 1.647716 1.663212 1.663212 1.950656 1.950656 2.152970
0.557268 0.557268 0.736283 0.736283 1.132040 1.132040 1.232991 1.232991 1.634376 1.634376 1.673640 1.673640 1.939612 1.939612 2.127976
0.517660 0.517660 0.776224 0.776224 1.116518 1.116518 1.256154 1.256154 1.612889 1.612889 1.685625 1.685625 1.913260 1.913260 2.082336
0.471482 0.471482 0.822588 0.822588 1.100428 1.100428 1.285479 1.285479 1.587770 1.587770 1.692335 1.692335 1.882838 1.882838 2.037857
0.424044 0.424044 0.869182 0.869182 1.087812 1.087812 1.318007 1.318007 1.558713 1.558713 1.690675 1.690675 1.856334 1.856334 1.998512
0.377687 0.377687 0.911558 0.911558 1.082368 1.082368 1.352409 1.352409 1.525279 1.525279 1.678892 1.678892 1.837069 1.837069 1.966827
0.334172 0.334172 0.944045 0.944045 1.089198 1.089198 1.387616 1.387616 1.487917 1.487917 1.658494 1.658494 1.822944 1.822944 1.945140
0.295478 0.295478 0.962316 0.962316 1.111726 1.111726 1.418921 1.418921 1.452018 1.452018 1.632594 1.632594 1.810384 1.810384 1.933985
0.264165 0.264165 0.969317 0.969317 1.144984 1.144984 1.399866 1.399866 1.466391 1.466391 1.603238 1.603238 1.799099 1.799099 1.930615
0.243363 0.243363 0.971161 0.971161 1.177522 1.177522 1.365698 1.365698 1.501431 1.501431 1.571349 1.571349 1.791154 1.791154 1.930762
0.236008 0.236008 0.971438 0.971438 1.192563 1.192563 1.350127 1.350127 1.532969 1.532969 1.541129 1.541129 1.788307 1.788307 1.931194
0.243363 0.243363 0.971161 0.971161 1.177522 1.177522 1.365698 1.365698 1.501431 1.501431 1.571349 1.571349 1.791154 1.791154 1.930762
0.264165 0.264165 0.969317 0.969317 1.144984 1.144984 1.399866 1.399866 1.466391 1.466391 1.603238 1.603238 1.799099 1.799099 1.930615
0.295478 0.295478 0.962316 0.962316 1.111726 1.111726 1.418921 1.418921 1.452018 1.452018 1.632594 1.632594 1.810384 1.810384 1.933985
0.334172 0.334172 0.944045 0.944045 1.089198 1.089198 1.387616 1.387616 1.487917 1.487917 1.658494 1.658494 1.822944 1.822944 1.945140
0.377687 0.377687 0.911558 0.911558 1.082368 1.082368 1.352409 1.352409 1.525279 1.525279 1.678892 1.678892 1.837069 1.837069 1.966827
0.424044 0.424044 0.869182 0.869182 1.087812 1.087812 1.318007 1.318007 1.558713 1.558713 1.690675 1.690675 1.856334 1.856334 1.998512
0.471482 0.471482 0.822588 0.822588 1.100428 1.100428 1.285479 1.285479 1.587770 1.587770 1.692335 1.692335 1.882838 1.882838 2.037857
0.517660 0.517660 0.776224 0.776224 1.116518 1.116518 1.256154 1.256154 1.612889 1.612889 1.685625 1.685625 1.913260 1.913260 2.082336
0.557268 0.557268 0.736283 0.736283 1.132040 1.132040 1.232991 1.232991 1.634376 1.634376 1.673640 1.673640 1.939612 1.939612 2.127976
0.575463 0.575463 0.717947 0.717947 1.139374 1.139374 1.223152 1.223152 1.647716 1.647716 1.663212 1.663212 1.950656 1.950656 2.152970