# vtk DataFile Version 2.0
this shit
ASCII
DATASET POLYDATA
POINTS 2145 double
0.577350 0.000000 0.000000
0.288670 0.500000 0.000000
-0.288670 0.500000 0.000000
-0.577350 0.000000 0.000000
-0.288670 -0.500000 0.000000
0.288670 -0.500000 0.000000
0.568329 0.015625 0.000000
0.559308 0.031250 0.000000
0.550286 0.046875 0.000000
0.541265 0.062500 0.000000
0.532244 0.078125 0.000000
0.523223 0.093750 0.000000
0.514201 0.109375 0.000000
0.505180 0.125000 0.000000
0.496159 0.140625 0.000000
0.487138 0.156250 0.000000
0.478116 0.171875 0.000000
0.469095 0.187500 0.000000
0.460074 0.203125 0.000000
0.451053 0.218750 0.000000
0.442031 0.234375 0.000000
0.433010 0.250000 0.000000
0.423989 0.265625 0.000000
0.414968 0.281250 0.000000
0.405946 0.296875 0.000000
0.396925 0.312500 0.000000
0.387904 0.328125 0.000000
0.378883 0.343750 0.000000
0.369861 0.359375 0.000000
0.360840 0.375000 0.000000
0.351819 0.390625 0.000000
0.342798 0.406250 0.000000
0.333776 0.421875 0.000000
0.324755 0.437500 0.000000
0.315734 0.453125 0.000000
0.306713 0.468750 0.000000
0.297691 0.484375 0.000000
0.270628 0.500000 0.000000
0.252586 0.500000 0.000000
0.234544 0.500000 0.000000
0.216503 0.500000 0.000000
0.198461 0.500000 0.000000
0.180419 0.500000 0.000000
0.162377 0.500000 0.000000
0.144335 0.500000 0.000000
0.126293 0.500000 0.000000
0.108251 0.500000 0.000000
0.090209 0.500000 0.000000
0.072168 0.500000 0.000000
0.054126 0.500000 0.000000
0.036084 0.500000 0.000000
0.018042 0.500000 0.000000
0.000000 0.500000 0.000000
-0.018042 0.500000 0.000000
-0.036084 0.500000 0.000000
-0.054126 0.500000 0.000000
-0.072167 0.500000 0.000000
-0.090209 0.500000 0.000000
-0.108251 0.500000 0.000000
-0.126293 0.500000 0.000000
-0.144335 0.500000 0.000000
-0.162377 0.500000 0.000000
-0.180419 0.500000 0.000000
-0.198461 0.500000 0.000000
-0.216502 0.500000 0.000000
-0.234544 0.500000 0.000000
-0.252586 0.500000 0.000000
-0.270628 0.500000 0.000000
-0.297691 0.484375 0.000000
-0.306712 0.468750 0.000000
-0.315734 0.453125 0.000000
-0.324755 0.437500 0.000000
-0.333776 0.421875 0.000000
-0.342797 0.406250 0.000000
-0.351819 0.390625 0.000000
-0.360840 0.375000 0.000000
-0.369861 0.359375 0.000000
-0.378882 0.343750 0.000000
-0.387904 0.328125 0.000000
-0.396925 0.312500 0.000000
-0.405946 0.296875 0.000000
-0.414967 0.281250 0.000000
-0.423989 0.265625 0.000000
-0.433010 0.250000 0.000000
-0.442031 0.234375 0.000000
-0.451052 0.218750 0.000000
-0.460074 0.203125 0.000000
-0.469095 0.187500 0.000000
-0.478116 0.171875 0.000000
-0.487137 0.156250 0.000000
-0.496159 0.140625 0.000000
-0.505180 0.125000 0.000000
-0.514201 0.109375 0.000000
-0.523222 0.093750 0.000000
-0.532244 0.078125 0.000000
-0.541265 0.062500 0.000000
-0.550286 0.046875 0.000000
-0.559307 0.031250 0.000000
-0.568329 0.015625 0.000000
-0.568329 -0.015625 0.000000
-0.559308 -0.031250 0.000000
-0.550286 -0.046875 0.000000
-0.541265 -0.062500 0.000000
-0.532244 -0.078125 0.000000
-0.523223 -0.093750 0.000000
-0.514201 -0.109375 0.000000
-0.505180 -0.125000 0.000000
-0.496159 -0.140625 0.000000
-0.487138 -0.156250 0.000000
-0.478116 -0.171875 0.000000
-0.469095 -0.187500 0.000000
-0.460074 -0.203125 0.000000
-0.451053 -0.218750 0.000000
-0.442031 -0.234375 0.000000
-0.433010 -0.250000 0.000000
-0.423989 -0.265625 0.000000
-0.414968 -0.281250 0.000000
-0.405946 -0.296875 0.000000
-0.396925 -0.312500 0.000000
-0.387904 -0.328125 0.000000
-0.378883 -0.343750 0.000000
-0.369861 -0.359375 0.000000
-0.360840 -0.375000 0.000000
-0.351819 -0.390625 0.000000
-0.342798 -0.406250 0.000000
-0.333776 -0.421875 0.000000
-0.324755 -0.437500 0.000000
-0.315734 -0.453125 0.000000
-0.306713 -0.468750 0.000000
-0.297691 -0.484375 0.000000
-0.270628 -0.500000 0.000000
-0.252586 -0.500000 0.000000
-0.234544 -0.500000 0.000000
-0.216503 -0.500000 0.000000
-0.198461 -0.500000 0.000000
-0.180419 -0.500000 0.000000
-0.162377 -0.500000 0.000000
-0.144335 -0.500000 0.000000
-0.126293 -0.500000 0.000000
-0.108251 -0.500000 0.000000
-0.090209 -0.500000 0.000000
-0.072168 -0.500000 0.000000
-0.054126 -0.500000 0.000000
-0.036084 -0.500000 0.000000
-0.018042 -0.500000 0.000000
-0.000000 -0.500000 0.000000
0.018042 -0.500000 0.000000
0.036084 -0.500000 0.000000
0.054126 -0.500000 0.000000
0.072167 -0.500000 0.000000
0.090209 -0.500000 0.000000
0.108251 -0.500000 0.000000
0.126293 -0.500000 0.000000
0.144335 -0.500000 0.000000
0.162377 -0.500000 0.000000
0.180419 -0.500000 0.000000
0.198461 -0.500000 0.000000
0.216502 -0.500000 0.000000
0.234544 -0.500000 0.000000
0.252586 -0.500000 0.000000
0.270628 -0.500000 0.000000
0.297691 -0.484375 0.000000
0.306712 -0.468750 0.000000
0.315734 -0.453125 0.000000
0.324755 -0.437500 0.000000
0.333776 -0.421875 0.000000
0.342797 -0.406250 0.000000
0.351819 -0.390625 0.000000
0.360840 -0.375000 0.000000
0.369861 -0.359375 0.000000
0.378882 -0.343750 0.000000
0.387904 -0.328125 0.000000
0.396925 -0.312500 0.000000
0.405946 -0.296875 0.000000
0.414967 -0.281250 0.000000
0.423989 -0.265625 0.000000
0.433010 -0.250000 0.000000
0.442031 -0.234375 0.000000
0.451052 -0.218750 0.000000
0.460074 -0.203125 0.000000
0.469095 -0.187500 0.000000
0.478116 -0.171875 0.000000
0.487137 -0.156250 0.000000
0.496159 -0.140625 0.000000
0.505180 -0.125000 0.000000
0.514201 -0.109375 0.000000
0.523222 -0.093750 0.000000
0.532244 -0.078125 0.000000
0.541265 -0.062500 0.000000
0.550286 -0.046875 0.000000
0.559307 -0.031250 0.000000
0.568329 -0.015625 0.000000
-0.238398 0.087078 0.000000
0.000137 0.000238 0.000000
0.238429 -0.087025 0.000000
-0.341901 0.157805 0.000000
-0.249746 0.317421 0.000000
-0.426740 0.010860 0.000000
-0.341631 -0.091728 0.000000
-0.247419 -0.178548 0.000000
0.005086 0.258810 0.000000
0.134488 0.232944 0.000000
-0.125243 0.283070 0.000000
-0.123593 0.035928 0.000000
-0.134248 -0.232528 0.000000
0.123860 -0.035466 0.000000
0.247472 0.178639 0.000000
-0.004907 -0.258500 0.000000
0.125400 -0.282799 0.000000
0.249724 -0.317461 0.000000
0.426612 -0.011083 0.000000
0.341465 0.091439 0.000000
0.341724 -0.158111 0.000000
-0.307644 0.342139 0.000000
-0.264383 0.417069 0.000000
-0.348913 0.270658 0.000000
-0.296931 0.235696 0.000000
-0.389043 0.201152 0.000000
-0.291631 0.119876 0.000000
-0.241421 0.206843 0.000000
-0.428305 0.133150 0.000000
-0.385134 0.082923 0.000000
-0.385083 -0.041988 0.000000
-0.339500 0.036965 0.000000
-0.428285 -0.116816 0.000000
-0.388940 -0.173670 0.000000
-0.291327 -0.004599 0.000000
-0.466750 0.066561 0.000000
-0.504402 0.001348 0.000000
-0.466750 -0.058439 0.000000
-0.296064 -0.137803 0.000000
-0.240329 -0.041267 0.000000
-0.348539 -0.228693 0.000000
-0.306568 -0.280997 0.000000
-0.260962 -0.327005 0.000000
0.140866 0.368990 0.000000
0.205774 0.356417 0.000000
0.072904 0.376275 0.000000
0.070607 0.247297 0.000000
0.004223 0.382315 0.000000
0.003329 0.130766 0.000000
0.066627 0.115404 0.000000
-0.064343 0.388554 0.000000
-0.060493 0.270222 0.000000
-0.122507 0.162809 0.000000
-0.060125 0.145860 0.000000
-0.183093 0.182869 0.000000
-0.182355 0.059148 0.000000
-0.062443 0.016844 0.000000
-0.132350 0.395760 0.000000
-0.199336 0.404735 0.000000
-0.188557 0.298405 0.000000
-0.127839 -0.096427 0.000000
-0.066364 -0.114948 0.000000
-0.185983 -0.072135 0.000000
-0.193869 -0.210795 0.000000
-0.205615 -0.356142 0.000000
0.194084 0.211168 0.000000
0.260974 0.327027 0.000000
0.128116 0.096907 0.000000
0.186210 0.072528 0.000000
0.062717 -0.016370 0.000000
0.182558 -0.058796 0.000000
0.240375 0.041347 0.000000
-0.003083 -0.130341 0.000000
0.060366 -0.145443 0.000000
0.060676 -0.269905 0.000000
0.122736 -0.162412 0.000000
-0.004134 -0.382161 0.000000
0.064435 -0.388394 0.000000
0.183257 -0.182585 0.000000
-0.070407 -0.246950 0.000000
-0.140746 -0.368783 0.000000
-0.072808 -0.376109 0.000000
0.188648 -0.298248 0.000000
0.241435 -0.206817 0.000000
0.132414 -0.395649 0.000000
0.199380 -0.404659 0.000000
0.264388 -0.417060 0.000000
0.504379 -0.001388 0.000000
0.466694 0.058342 0.000000
0.466696 -0.066655 0.000000
0.428193 0.116657 0.000000
0.428217 -0.133302 0.000000
0.388835 0.173487 0.000000
0.384904 0.041679 0.000000
0.339304 -0.037303 0.000000
0.384960 -0.083225 0.000000
0.291196 0.004370 0.000000
0.291487 -0.120125 0.000000
0.388942 -0.201328 0.000000
0.348446 0.228532 0.000000
0.306490 0.280863 0.000000
0.295956 0.137616 0.000000
0.348797 -0.270860 0.000000
0.296791 -0.235938 0.000000
0.307544 -0.342311 0.000000
-0.295413 0.425823 0.000000
-0.274820 0.461489 0.000000
-0.315317 0.391348 0.000000
-0.286375 0.378978 0.000000
-0.334884 0.357457 0.000000
-0.279205 0.328896 0.000000
-0.256169 0.368796 0.000000
-0.354240 0.323932 0.000000
-0.328451 0.306100 0.000000
-0.323400 0.252349 0.000000
-0.301562 0.290173 0.000000
-0.344815 0.215257 0.000000
-0.319650 0.196344 0.000000
-0.273664 0.275995 0.000000
-0.373428 0.290698 0.000000
-0.392479 0.257701 0.000000
-0.369096 0.235701 0.000000
-0.411420 0.224895 0.000000
-0.365871 0.178788 0.000000
-0.269576 0.220576 0.000000
-0.244881 0.263349 0.000000
-0.293638 0.178898 0.000000
-0.266834 0.162824 0.000000
-0.317145 0.138184 0.000000
-0.265379 0.102846 0.000000
-0.239280 0.148051 0.000000
-0.430258 0.192266 0.000000
-0.408780 0.166967 0.000000
-0.407025 0.107507 0.000000
-0.386604 0.142878 0.000000
-0.427135 0.072676 0.000000
-0.406141 0.046539 0.000000
-0.363723 0.120009 0.000000
-0.406126 -0.015936 0.000000
-0.384624 0.021307 0.000000
-0.362581 -0.003013 0.000000
-0.362626 0.059409 0.000000
-0.363594 -0.067269 0.000000
-0.339993 -0.026390 0.000000
-0.340136 0.098362 0.000000
-0.427121 -0.052300 0.000000
-0.406987 -0.079926 0.000000
-0.408733 -0.145452 0.000000
-0.386513 -0.106966 0.000000
-0.430244 -0.182708 0.000000
-0.411386 -0.212546 0.000000
-0.365680 -0.133382 0.000000
-0.315849 0.077928 0.000000
-0.315742 0.015614 0.000000
-0.290865 0.058703 0.000000
-0.316828 -0.048768 0.000000
-0.265172 0.040703 0.000000
-0.448991 0.159821 0.000000
-0.467625 0.127546 0.000000
-0.447625 0.099686 0.000000
-0.486161 0.095441 0.000000
[...]
POINT_DATA 2145
SCALARS solution_0 double
LOOKUP_TABLE defaul
0.000000
0.000000
0.000000
0.000000
0.000000
0.000000
0.000000
0.000000
0.000000
0.000000
0.000000
0.000000
0.000000
0.000000
0.000000
0.000000
0.000000
0.000000
0.000000
0.000000
0.000000
0.000000
0.000000
0.000000
0.000000
0.000000
0.000000
0.000000
0.000000
0.000000
0.000000
0.000000
0.000000
0.000000
0.000000
0.000000
0.000000
0.000000
0.000000
0.000000
0.000000
0.000000
0.000000
0.000000
0.000000
0.000000
0.000000
0.000000
0.000000
0.000000
0.000000
0.000000
0.000000
0.000000
0.000000
0.000000
0.000000
0.000000
0.000000
0.000000
0.000000
0.000000
0.000000
0.000000
0.000000
0.000000
0.000000
0.000000
0.000000
0.000000
0.000000
0.000000
0.000000
0.000000
0.000000
0.000000
0.000000
0.000000
0.000000
0.000000
0.000000
0.000000
0.000000
0.000000
0.000000
0.000000
0.000000
0.000000
0.000000
0.000000
0.000000
0.000000
0.000000
0.000000
0.000000
0.000000
0.000000
0.000000
0.000000
0.000000
0.000000
0.000000
0.000000
0.000000
0.000000
0.000000
0.000000
0.000000
0.000000
0.000000
0.000000
0.000000
0.000000
0.000000
0.000000
0.000000
0.000000
0.000000
0.000000
0.000000
0.000000
0.000000
0.000000
0.000000
0.000000
0.000000
0.000000
0.000000
0.000000
0.000000
0.000000
0.000000
0.000000
0.000000
0.000000
0.000000
0.000000
0.000000
0.000000
0.000000
0.000000
0.000000
0.000000
0.000000
0.000000
0.000000
0.000000
0.000000
0.000000
0.000000
0.000000
0.000000
0.000000
0.000000
0.000000
0.000000
0.000000
0.000000
0.000000
0.000000
0.000000
0.000000
0.000000
0.000000
0.000000
0.000000
0.000000
0.000000
0.000000
0.000000
0.000000
0.000000
0.000000
0.000000
0.000000
0.000000
0.000000
0.000000
0.000000
0.000000
0.000000
0.000000
0.000000
0.000000
0.000000
0.000000
0.000000
0.000000
0.000000
0.000000
0.000000
0.000000
-1.138201
-2.337846
-1.137459
-0.342206
-0.696560
-0.041632
-0.269120
-0.824298
-1.647291
-1.453609
-1.332440
-1.981327
-1.453046
-1.980565
-0.822547
-1.647038
-1.331388
-0.696880
-0.041622
-0.268694
-0.342898
-0.319837
-0.306963
-0.221339
-0.571759
-0.114583
-0.696114
-1.001188
-0.042183
-0.148604
-0.119438
-0.352560
-0.020365
-0.057735
-0.669769
-0.009309
-0.000740
-0.005251
-0.507808
-1.074573
-0.132707
-0.259215
-0.440455
-0.806260
-0.647244
-0.885687
-1.620323
-0.885655
-2.158375
-2.095347
-0.816059
-1.543426
-1.792344
-2.049208
-1.427777
-1.591813
-2.244721
-0.691139
-0.524340
-1.043094
-1.863025
-2.095272
-1.499652
-1.166457
-0.646766
-1.166349
-0.438709
-1.862998
-1.498917
-2.244356
-1.590640
-1.073219
-2.158154
-2.048441
-1.542453
-1.791135
-0.885525
-0.815412
-1.426562
-1.620016
-0.805993
-0.885548
-1.042309
-1.001025
-0.690721
-0.523908
-0.306965
-0.000739
-0.005247
-0.009296
-0.020357
-0.042197
-0.057670
-0.119390
-0.352641
-0.148744
-0.669126
-0.696608
-0.114796
-0.132361
-0.258007
-0.506403
-0.222155
-0.573088
-0.321065
-0.162280
-0.123255
-0.163383
-0.337524
-0.146682
-0.507860
-0.505150
-0.121596
-0.276187
-0.381996
-0.458829
-0.295576
-0.459113
-0.659476
-0.094051
-0.067833
-0.165281
-0.045291
-0.212473
-0.781853
-0.865831
-0.652249
-0.867214
-0.504437
-0.910502
-1.093857
-0.027670
-0.073046
-0.085166
-0.140935
-0.045937
-0.084181
-0.235773
-0.073182
-0.140260
-0.218009
-0.236685
-0.183790
-0.320498
-0.360782
-0.032146
-0.055675
-0.035356
-0.090378
-0.008937
-0.015780
-0.139050
-0.516868
-0.497452
-0.701701
-0.449237
-0.909494
-0.015184
-0.007254
-0.021522
-0.002870
-0.021368
-0.000859
-0.003178
-0.002203
-0.008075
-0.000318
-0.000929
-0.017076
-0.000160
-0.000010
-0.000079
-0.010871
-0.002232
-0.004691
-0.864706
-1.131635
-0.603391
-0.779268
-0.377151
-0.658657
-0.970226
-0.204234
-0.287742
-0.188936
-0.390170
-0.062073
-0.089746
-0.510382
-0.089526
-0.026189
-0.041246
-0.343630
-0.644584
-0.125145
-0.169104
-0.222129
-0.337522
-0.281862
-0.382647
-0.736160
-0.417055
-1.155283
-1.051956
-0.440649
-0.856268
-1.279621
-1.231676
-1.298900
-1.651182
-1.554042
-0.453466
-0.456046
-0.895102
-0.449057
-1.290786
-1.895468
-1.812606
-1.938146
-2.148969
-1.940420
-2.292580
-2.275827
-0.433315
-0.858768
-1.199982
-1.257046
-1.122287
-1.449507
-1.610490
-1.591856
-1.725329
-1.936926
-1.830762
-1.924256
-2.074600
-1.903729
-1.434824
-1.620756
-1.540840
-1.744135
-1.321504
-1.368649
-1.798785
-2.124321
-2.189228
-2.263103
-2.132084
-2.314345
-0.409566
-0.378921
-0.759471
-0.342471
-1.027000
-0.300719
-0.612607
-0.793310
-0.916743
-0.656838
-0.876212
-1.195919
-0.253447
-0.198089
-0.424723
-1.258729
-1.067726
-1.219214
-2.213118
-2.275842
-2.106607
-1.998801
-1.960740
-1.691770
-1.812353
-1.781884
-1.693952
-1.360467
-1.538544
-1.167368
-0.996868
-1.321740
-1.577934
-1.357903
-1.289701
-0.925642
-1.051292
-0.786224
-0.544865
-0.281824
-0.544351
-0.220719
-0.925689
-0.785576
-1.322138
-0.996040
-0.642781
-1.692088
-1.538622
-1.693653
-1.360020
-1.960329
-1.781210
-1.166345
-1.998801
-2.212979
-2.106333
-2.314161
-2.131534
-1.288551
-0.968631
-1.576948
-1.356710
-1.797801
-1.367476
-1.130575
-2.292448
-2.262749
-2.123815
-2.188661
-1.940152
-1.903081
-2.073813
-1.609799
-1.829860
-1.724243
-1.935956
-1.448423
-1.590609
-1.923225
-1.290606
-1.256385
-0.858193
-1.199090
-0.448977
-0.432956
-1.121490
-1.742923
-1.619438
-1.539577
-1.433610
-1.320433
-2.148852
-1.895241
-1.937981
-1.553630
-1.651028
-1.154751
-1.231265
-0.855956
-1.279320
-0.416991
-0.440523
-1.298846
-0.735500
-0.337010
-0.382307
-0.895127
-0.453464
-0.456092
-1.218304
-1.093422
-1.257712
-1.067033
-1.194959
-0.875738
-0.865963
-1.026289
-0.916001
-0.612033
-0.792707
-0.342263
-0.300415
-0.656508
-0.759027
-0.409269
-0.378768
-0.424394
-0.505390
-0.253222
-0.197818
-0.123140
-0.000010
-0.000079
-0.000159
-0.000318
-0.000857
-0.000929
-0.002200
-0.008065
-0.003173
-0.017062
-0.021350
-0.002865
-0.002231
-0.004690
-0.010865
-0.008937
-0.032132
-0.007242
-0.021503
-0.015170
-0.045940
-0.027682
-0.015773
-0.035335
-0.090300
-0.055651
-0.138839
-0.183620
-0.073177
-0.320284
-0.217974
-0.236832
-0.140294
-0.361190
-0.236114
-0.084221
-0.448648
-0.497268
-0.701636
-0.517148
-0.908916
-0.910481
-0.505150
-0.085248
-0.141149
-0.073135
-0.212940
-0.045343
-0.026163
-0.041181
-0.089368
-0.061923
-0.203766
-0.089412
-0.188245
-0.388712
-0.286861
-0.508298
-0.656713
-0.376307
-0.124516
-0.167912
-0.341754
-0.602276
-0.777669
-0.863586
-0.067977
-0.165750
-0.094384
-0.296428
-0.122149
-0.460180
-0.383218
-0.460252
-0.277283
-0.660621
-0.509013
-0.147352
-0.653199
-0.867685
-0.782710
-0.164031
-0.338393
-0.162642
-0.068708
-0.048010
-0.078190
-0.149763
-0.081833
-0.238088
-0.211568
-0.081819
-0.165886
-0.250232
-0.249543
-0.243188
-0.333114
-0.330123
-0.079316
-0.075033
-0.156569
-0.069522
-0.230559
-0.423078
-0.405795
-0.424268
-0.514671
-0.412926
-0.602911
-0.602775
-0.063256
-0.134752
-0.194950
-0.214021
-0.174465
-0.249457
-0.300214
-0.297659
-0.332421
-0.422622
-0.364545
-0.473706
-0.519016
-0.392118
-0.261821
-0.339070
-0.373320
-0.424387
-0.322414
-0.400137
-0.517144
-0.488215
-0.557679
-0.586727
-0.620246
-0.686073
-0.056581
-0.049757
-0.107862
-0.043020
-0.153444
-0.036551
-0.080599
-0.112603
-0.132628
-0.093827
-0.138967
-0.192983
-0.030485
-0.024926
-0.056000
-0.019953
-0.076631
-0.226223
-0.191907
-0.252999
-0.159706
-0.273252
-0.762664
-0.784786
-0.724878
-0.831376
-0.674968
-0.891068
-0.938379
-0.616389
-0.720968
-0.757616
-0.829554
-0.678924
-0.784409
-0.940787
-0.552408
-0.485875
-0.579088
-0.419366
-0.596951
-0.979764
-1.053292
-0.894330
-1.007412
-0.801028
-1.023347
-1.122308
-0.015613
-0.035825
-0.047842
-0.061258
-0.036430
-0.056269
-0.092524
-0.061399
-0.080918
-0.110960
-0.103885
-0.114055
-0.146961
-0.130225
-0.045242
-0.063553
-0.063084
-0.086131
-0.044615
-0.060364
-0.113517
-0.174911
-0.184750
-0.227050
-0.189454
-0.287004
-0.055788
-0.079723
-0.103165
-0.109744
-0.094256
-0.131158
-0.146233
-0.164150
-0.176212
-0.229570
-0.184777
-0.280985
-0.291021
-0.189341
-0.149156
-0.202549
-0.246707
-0.266025
-0.223692
-0.296887
-0.339262
-0.238885
-0.295623
-0.294393
-0.359878
-0.354968
-0.037354
-0.049758
-0.042690
-0.065012
-0.026368
-0.034991
-0.083511
-0.027060
-0.045637
-0.058608
-0.071455
-0.045497
-0.074207
-0.105652
-0.014458
-0.019274
-0.011977
-0.025267
-0.004051
-0.005469
-0.032625
-0.131822
-0.112799
-0.162388
-0.092741
-0.197677
-0.430960
-0.435015
-0.514752
-0.431722
-0.605898
-0.421415
-0.511002
-0.597378
-0.605989
-0.580413
-0.690288
-0.703708
-0.404514
-0.381582
-0.476678
-0.353246
-0.555523
-0.807293
-0.803226
-0.915572
-0.788962
-1.027348
-0.011917
-0.008842
-0.020809
-0.006353
-0.026959
-0.004402
-0.010705
-0.013329
-0.019313
-0.008808
-0.014499
-0.030666
-0.002923
-0.001846
-0.004692
-0.001097
-0.005528
-0.032243
-0.022108
-0.032010
-0.014487
-0.030293
-0.000604
-0.001640
-0.001775
-0.003258
-0.000873
-0.001633
-0.005639
-0.001324
-0.002782
-0.004445
-0.005219
-0.003475
-0.006766
-0.008991
-0.000535
-0.000941
-0.000560
-0.001555
-0.000131
-0.000235
-0.002445
-0.013553
-0.011950
-0.019595
-0.009915
-0.027420
-0.000302
-0.000132
-0.000401
-0.000048
-0.000373
-0.000013
-0.000050
-0.000032
-0.000130
-0.000004
-0.000012
-0.000280
-0.000002
-0.000000
-0.000001
-0.000167
-0.000031
-0.000067
-0.023713
-0.014083
-0.019487
-0.007666
-0.015040
-0.003694
-0.005399
-0.003282
-0.007673
-0.000975
-0.001449
-0.010645
-0.001469
-0.000396
-0.000634
-0.006544
-0.002091
-0.002943
-1.019396
-1.141330
-0.892438
-0.999617
-0.764841
-0.968353
-1.109280
-0.640609
-0.731294
-0.688963
-0.826776
-0.558839
-0.638554
-0.926052
-0.523305
-0.415803
-0.484432
-0.320256
-0.439742
-0.873384
-1.028006
-0.722928
-0.811074
-0.580969
-0.740075
-0.902008
-0.237957
-0.283412
-0.243627
-0.334142
-0.168837
-0.201847
-0.390124
-0.159108
-0.238970
-0.280266
-0.336611
-0.222282
-0.325747
-0.451231
-0.096793
-0.116457
-0.074995
-0.138784
-0.029499
-0.035810
-0.163880
-0.517142
-0.448201
-0.587424
-0.375274
-0.661345
-0.169443
-0.114509
-0.139791
-0.072326
-0.109576
-0.041542
-0.052218
-0.033067
-0.064854
-0.012189
-0.015477
-0.079648
-0.020472
-0.007255
-0.009472
-0.050866
-0.019408
-0.024056
-0.576076
-0.738089
-0.428666
-0.485402
-0.299674
-0.390681
-0.544914
-0.191858
-0.222733
-0.145986
-0.256568
-0.060607
-0.071073
-0.293178
-0.106415
-0.043054
-0.051287
-0.194430
-0.332362
-0.082830
-0.095947
-0.110677
-0.143785
-0.126837
-0.158519
-0.310726
-0.172015
-0.495949
-0.456656
-0.183821
-0.361298
-0.563601
-0.531469
-0.591663
-0.773575
-0.693668
-0.194324
-0.203403
-0.401134
-0.211144
-0.615947
-0.899222
-0.847151
-0.945628
-1.106673
-0.986449
-1.311360
-1.255569
-0.217478
-0.430216
-0.652589
-0.636244
-0.664895
-0.873509
-0.833778
-1.088423
-1.072220
-1.259216
-1.049826
-1.457448
-1.432820
-1.021160
-1.098431
-1.292764
-1.482408
-1.473906
-1.483038
-1.653460
-1.640140
-1.196886
-1.400189
-1.359536
-1.591521
-1.507839
-0.222410
-0.225987
-0.448350
-0.228257
-0.673334
-0.229231
-0.456015
-0.678888
-0.677963
-0.676210
-0.892641
-0.892813
-0.228935
-0.227458
-0.453682
-0.224854
-0.670135
-1.102463
-1.100672
-1.298145
-1.093278
-1.476098
-1.691870
-1.640582
-1.733958
-1.858911
-1.766738
-2.005312
-1.965306
-1.789916
-1.921862
-2.053634
-2.034771
-2.061791
-2.159178
-2.127632
-1.803559
-1.807703
-1.944252
-1.802584
-2.059405
-2.223252
-2.199606
-2.235492
-2.290016
-2.236348
-2.326520
-2.322244
-0.221149
-0.442245
-0.648265
-0.660777
-0.632753
-0.839269
-0.874301
-1.012003
-1.039533
-1.231257
-1.062453
-1.377807
-1.412270
-1.080463
-0.980137
-1.163550
-1.291406
-1.337391
-1.240318
-1.393633
-1.499604
-1.277001
-1.440396
-1.461793
-1.580534
-1.632863
-1.468786
-1.534699
-1.661817
-1.594719
-1.700150
-1.773475
-1.648325
-1.868351
-1.839849
-1.898656
-1.781851
-1.997436
-1.949278
-1.694981
-1.867349
-1.945337
-2.003541
-2.015484
-1.962406
-2.042286
-2.077091
-1.734195
-1.871564
-1.765486
-1.991153
-1.788409
-1.397482
-1.516018
-1.535096
-1.620489
-1.444635
-1.526583
-1.709592
-1.491771
-1.593641
-1.644948
-1.690732
-1.574340
-1.679838
-1.782238
-1.385928
-1.432724
-1.352220
-1.464801
-1.237673
-1.253749
-1.481721
-1.837534
-1.780312
-1.874806
-1.697861
-1.893596
-1.926806
-2.023757
-2.046633
-2.091683
-2.146669
-2.129490
-2.172086
-2.231524
-2.204380
-2.227785
-2.269348
-2.225908
-2.136727
-2.113623
-2.175686
-2.061105
-2.193513
-2.283551
-2.299887
-2.319027
-2.285150
-2.331977
-0.216376
-0.210597
-0.422367
-0.203903
-0.614450
-0.196356
-0.395050
-0.570240
-0.593548
-0.544747
-0.726660
-0.789368
-0.188010
-0.178962
-0.361370
-0.169236
-0.517251
-0.944251
-0.904724
-1.076669
-0.861823
-1.184561
-0.158829
-0.322268
-0.456494
-0.487831
-0.423247
-0.569719
-0.653107
-0.660203
-0.714905
-0.856615
-0.766769
-0.921601
-0.992770
-0.815796
-0.602479
-0.726816
-0.769146
-0.847089
-0.687724
-0.787889
-0.961344
-0.973644
-1.060477
-1.124524
-1.121390
-1.266421
-0.147723
-0.135908
-0.277831
-0.123245
-0.387979
-0.109419
-0.227159
-0.309435
-0.350312
-0.263929
-0.368790
-0.476227
-0.093758
-0.074735
-0.164573
-0.541318
-0.476040
-0.583107
-1.321269
-1.240649
-1.348895
-1.156032
-1.349742
-1.067811
-1.164869
-1.149128
-1.251044
-1.044647
-1.110957
-1.325083
-0.976280
-0.881792
-0.967851
-1.276954
-1.165745
-1.208196
-2.306313
-2.322265
-2.278739
-2.250144
-2.239831
-2.164791
-2.199597
-2.189985
-2.165096
-2.062829
-2.119034
-1.996679
-1.935484
-2.052200
-2.129754
-2.059762
-2.038231
-1.980786
-1.921364
-1.915060
-1.965159
-1.855178
-1.756482
-1.786249
-1.580370
-1.640228
-1.893657
-1.874965
-1.746642
-1.837674
-1.649254
-1.599376
-1.782161
-1.437345
-1.533387
-1.452009
-1.624341
-1.269835
-1.356036
-1.708938
-1.337395
-1.265079
-1.087673
-1.179839
-0.994561
-0.910214
-1.082676
-1.618741
-1.437337
-1.512360
-1.246475
-1.390784
-1.799326
-1.698759
-1.682508
-1.593030
-1.546694
-1.483240
-1.469329
-1.330842
-1.440122
-1.220120
-1.182120
-1.395979
-1.370559
-1.256173
-1.244922
-1.234985
-1.131387
-1.068610
-1.192682
-1.254978
-1.124317
-0.990680
-1.051320
-0.790403
-0.846582
-0.974602
-0.856809
-0.668745
-0.730418
-0.606204
-0.491943
-0.596665
-0.895976
-0.816574
-0.714843
-0.415563
-0.456396
-0.373256
-0.251335
-0.127024
-0.250793
-0.109818
-0.415430
-0.372570
-0.596853
-0.490982
-0.330794
-0.790654
-0.730513
-0.856707
-0.668240
-1.051353
-0.974327
-0.605176
-0.991257
-1.193265
-1.124724
-1.391322
-1.246667
-0.713730
-0.543119
-0.895237
-0.815362
-1.082243
-0.908951
-0.736297
-1.580819
-1.512784
-1.619008
-1.437574
-1.786403
-1.709014
-1.356033
-1.782037
-1.624237
-1.533033
-1.451823
-1.598861
-1.436742
-1.269549
-1.921142
-1.837344
-1.874442
-1.746146
-1.980192
-1.892950
-1.648569
-1.179244
-1.264351
-1.086726
-1.336534
-0.993245
-1.756729
-1.915185
-1.855290
-2.052238
-1.935453
-2.164760
-2.118956
-2.164894
-2.062690
-2.239579
-2.189654
-1.996489
-2.250062
-2.306215
-2.278561
-2.331884
-2.284873
-2.037886
-2.129340
-2.059261
-2.193059
-2.060456
-1.067285
-0.900321
-1.233883
-1.130063
-1.395023
-1.180828
-1.026522
-1.545827
-1.439074
-1.468215
-1.329662
-1.591939
-1.482071
-1.218872
-1.681677
-1.798489
-1.697791
-1.892731
-1.696777
-1.243739
-1.108068
-1.369371
-1.255065
-1.480525
-1.252731
-1.140428
-2.326451
-2.318859
-2.283313
-2.299618
-2.236168
-2.225604
-2.268971
-2.146310
-2.203946
-2.171539
-2.231055
-2.091037
-2.128812
-2.227316
-2.059159
-2.046215
-1.926341
-2.023171
-1.802317
-1.787921
-1.990417
-2.175104
-2.136038
-2.112947
-2.076302
-2.041488
-1.632387
-1.764808
-1.733366
-1.870774
-1.579691
-1.694037
-1.948436
-1.647292
-1.780863
-1.838811
-1.897731
-1.772333
-1.867269
-1.996577
-1.498565
-1.593614
-1.533551
-1.660659
-1.392569
-1.467614
-1.698907
-2.014594
-1.944334
-2.002639
-1.866221
-1.961509
-1.475884
-1.461332
-1.276563
-1.439718
-1.093122
-1.080051
-1.411433
-0.873925
-1.061831
-1.038797
-1.230461
-0.838625
-1.011227
-1.376859
-0.670028
-0.660442
-0.441981
-0.647780
-0.224798
-0.220997
-0.632246
-1.336400
-1.162674
-1.290441
-0.979423
-1.239418
-1.873794
-1.836409
-1.779206
-1.781020
-1.678657
-1.708321
-1.689458
-1.592356
-1.643710
-1.525303
-1.490520
-1.573119
-1.619196
-1.514769
-1.533809
-1.396341
-1.443421
-1.463587
-1.431532
-1.351097
-1.384783
-1.236754
-2.289971
-2.223194
-2.235392
-2.127546
-2.159040
-2.005148
-2.034626
-1.921678
-2.053479
-1.766478
-1.789705
-2.061629
-1.858672
-1.691518
-1.733644
-1.507409
-1.591163
-1.944089
-1.803398
-1.807543
-1.639920
-1.653324
-1.310765
-1.359093
-1.196483
-1.399755
-0.986057
-1.020815
-1.432430
-0.833508
-1.049459
-1.071891
-1.258828
-0.873261
-1.088192
-1.457117
-0.615796
-0.636038
-0.430076
-0.652354
-0.211120
-0.217410
-0.664748
-1.473699
-1.292598
-1.482285
-1.098333
-1.482942
-1.106041
-0.898509
-0.945033
-0.693053
-0.773098
-0.495373
-0.530899
-0.360862
-0.563054
-0.171725
-0.183589
-0.591329
-0.310292
-0.143584
-0.158258
-0.400960
-0.194176
-0.203337
-1.298098
-1.102461
-1.100655
-0.892775
-0.892643
-0.673274
-0.677950
-0.456015
-0.678915
-0.228269
-0.229241
-0.676233
-0.448295
-0.222368
-0.225980
-0.453714
-0.228974
-0.227478
-1.207383
-1.121728
-1.275970
-1.165037
-1.324010
-1.110357
-1.052999
-1.348623
-1.250052
-1.163981
-1.148329
-1.155136
-1.067048
-1.044165
-1.347792
-1.320190
-1.239670
-1.265409
-1.120516
-0.967492
-0.938373
-0.975716
-0.881551
-0.960691
-0.787731
-0.785038
-1.183681
-1.123638
-0.972888
-1.059634
-0.861267
-0.815162
-0.991998
-0.652584
-0.766120
-0.714309
-0.855950
-0.569208
-0.659693
-0.920922
-0.516943
-0.487401
-0.321961
-0.456043
-0.169127
-0.158678
-0.422871
-0.846521
-0.726336
-0.768764
-0.602079
-0.687621
-1.075960
-0.943646
-0.904199
-0.788817
-0.726289
-0.613972
-0.593146
-0.394805
-0.569945
-0.203776
-0.196256
-0.544516
-0.422037
-0.216199
-0.210449
-0.361242
-0.187958
-0.178908
-0.582998
-0.603086
-0.541013
-0.475890
-0.475873
-0.368579
-0.405920
-0.387653
-0.349992
-0.226909
-0.309122
-0.123137
-0.109283
-0.263691
-0.277608
-0.147598
-0.135813
-0.164359
-0.211497
-0.093612
-0.074616
-0.047967
-0.000000
-0.000001
-0.000002
-0.000004
-0.000013
-0.000012
-0.000032
-0.000130
-0.000050
-0.000279
-0.000373
-0.000048
-0.000031
-0.000067
-0.000167
-0.000131
-0.000534
-0.000132
-0.000400
-0.000301
-0.000872
-0.000603
-0.000235
-0.000560
-0.001553
-0.000940
-0.002443
-0.003471
-0.001322
-0.006759
-0.004439
-0.005212
-0.002778
-0.008979
-0.005630
-0.001630
-0.009906
-0.011938
-0.019579
-0.013538
-0.027403
-0.030276
-0.014470
-0.001772
-0.003252
-0.001636
-0.005518
-0.001094
-0.000396
-0.000634
-0.001468
-0.000975
-0.003691
-0.001449
-0.003281
-0.007670
-0.005396
-0.010641
-0.015033
-0.007660
-0.002092
-0.002944
-0.006544
-0.004052
-0.014454
-0.014072
-0.019476
-0.023698
-0.026356
-0.037340
-0.001842
-0.004683
-0.002917
-0.008794
-0.004394
-0.014482
-0.013312
-0.019295
-0.010691
-0.030656
-0.026950
-0.006345
-0.022089
-0.031995
-0.032230
-0.044610
-0.045252
-0.008833
-0.020802
-0.011914
-0.036444
-0.015622
-0.005470
-0.011974
-0.025253
-0.019267
-0.032598
-0.045459
-0.027048
-0.074132
-0.058564
-0.071410
-0.045613
-0.105583
-0.083475
-0.034975
-0.092618
-0.112667
-0.162185
-0.131700
-0.197358
-0.223412
-0.149058
-0.042674
-0.064994
-0.049746
-0.094236
-0.055783
-0.296553
-0.246504
-0.265916
-0.202437
-0.339186
-0.280989
-0.164099
-0.291145
-0.229622
-0.184849
-0.176218
-0.189485
-0.146318
-0.131145
-0.360121
-0.295876
-0.294769
-0.239130
-0.355524
-0.287499
-0.189674
-0.103173
-0.109785
-0.079737
-0.113597
-0.060373
-0.352732
-0.381204
-0.476279
-0.404305
-0.554884
-0.580013
-0.421387
-0.689930
-0.597240
-0.606107
-0.511044
-0.703924
-0.606279
-0.431895
-0.788353
-0.802912
-0.915271
-0.807281
-1.026736
-1.022960
-0.801297
-0.435386
-0.515254
-0.431524
-0.597568
-0.420099
-0.063107
-0.086194
-0.063590
-0.114167
-0.061445
-0.147145
-0.111094
-0.104027
-0.081008
-0.130449
-0.092662
-0.056320
-0.185030
-0.227465
-0.175233
-0.273835
-0.160042
-0.047889
-0.061332
-0.035860
-0.076747
-0.019972
-0.007254
-0.009469
-0.020459
-0.012181
-0.041496
-0.015461
-0.033024
-0.064743
-0.052144
-0.079483
-0.109342
-0.072223
-0.019383
-0.024018
-0.050770
-0.029437
-0.096544
-0.114317
-0.139502
-0.169120
-0.168415
-0.237485
-0.035709
-0.074762
-0.138264
-0.116087
-0.163177
-0.221360
-0.158610
-0.324378
-0.279200
-0.335464
-0.238156
-0.449763
-0.388965
-0.201250