# vtk DataFile Version 2.0
this shit
ASCII
DATASET POLYDATA
POINTS 817 double
0.577350 0.000000 0.000000
0.288670 0.500000 0.000000
-0.288670 0.500000 0.000000
-0.577350 0.000000 0.000000
-0.288670 -0.500000 0.000000
0.288670 -0.500000 0.000000
0.000000 0.000000 0.000000
0.559308 0.031250 0.000000
0.541265 0.062500 0.000000
0.523223 0.093750 0.000000
0.505180 0.125000 0.000000
0.487138 0.156250 0.000000
0.469095 0.187500 0.000000
0.451053 0.218750 0.000000
0.433010 0.250000 0.000000
0.414968 0.281250 0.000000
0.396925 0.312500 0.000000
0.378883 0.343750 0.000000
0.360840 0.375000 0.000000
0.342798 0.406250 0.000000
0.324755 0.437500 0.000000
0.306713 0.468750 0.000000
0.252586 0.500000 0.000000
0.216503 0.500000 0.000000
0.180419 0.500000 0.000000
0.144335 0.500000 0.000000
0.108251 0.500000 0.000000
0.072168 0.500000 0.000000
0.036084 0.500000 0.000000
0.000000 0.500000 0.000000
-0.036084 0.500000 0.000000
-0.072167 0.500000 0.000000
-0.108251 0.500000 0.000000
-0.144335 0.500000 0.000000
-0.180419 0.500000 0.000000
-0.216502 0.500000 0.000000
-0.252586 0.500000 0.000000
-0.306712 0.468750 0.000000
-0.324755 0.437500 0.000000
-0.342797 0.406250 0.000000
-0.360840 0.375000 0.000000
-0.378882 0.343750 0.000000
-0.396925 0.312500 0.000000
-0.414967 0.281250 0.000000
-0.433010 0.250000 0.000000
-0.451052 0.218750 0.000000
-0.469095 0.187500 0.000000
-0.487137 0.156250 0.000000
-0.505180 0.125000 0.000000
-0.523222 0.093750 0.000000
-0.541265 0.062500 0.000000
-0.559307 0.031250 0.000000
-0.559308 -0.031250 0.000000
-0.541265 -0.062500 0.000000
-0.523223 -0.093750 0.000000
-0.505180 -0.125000 0.000000
-0.487138 -0.156250 0.000000
-0.469095 -0.187500 0.000000
-0.451053 -0.218750 0.000000
-0.433010 -0.250000 0.000000
-0.414968 -0.281250 0.000000
-0.396925 -0.312500 0.000000
-0.378883 -0.343750 0.000000
-0.360840 -0.375000 0.000000
-0.342798 -0.406250 0.000000
-0.324755 -0.437500 0.000000
-0.306713 -0.468750 0.000000
-0.252586 -0.500000 0.000000
-0.216503 -0.500000 0.000000
-0.180419 -0.500000 0.000000
-0.144335 -0.500000 0.000000
-0.108251 -0.500000 0.000000
-0.072168 -0.500000 0.000000
-0.036084 -0.500000 0.000000
-0.000000 -0.500000 0.000000
0.036084 -0.500000 0.000000
0.072167 -0.500000 0.000000
0.108251 -0.500000 0.000000
0.144335 -0.500000 0.000000
0.180419 -0.500000 0.000000
0.216502 -0.500000 0.000000
0.252586 -0.500000 0.000000
0.306712 -0.468750 0.000000
0.324755 -0.437500 0.000000
0.342797 -0.406250 0.000000
0.360840 -0.375000 0.000000
0.378882 -0.343750 0.000000
0.396925 -0.312500 0.000000
0.414967 -0.281250 0.000000
0.433010 -0.250000 0.000000
0.451052 -0.218750 0.000000
0.469095 -0.187500 0.000000
0.487137 -0.156250 0.000000
0.505180 -0.125000 0.000000
0.523222 -0.093750 0.000000
0.541265 -0.062500 0.000000
0.559307 -0.031250 0.000000
0.018042 -0.031250 0.000000
0.036084 -0.062500 0.000000
0.054126 -0.093750 0.000000
0.072167 -0.125000 0.000000
0.090209 -0.156250 0.000000
0.108251 -0.187500 0.000000
0.126293 -0.218750 0.000000
0.144335 -0.250000 0.000000
0.162377 -0.281250 0.000000
0.180419 -0.312500 0.000000
0.198461 -0.343750 0.000000
0.216502 -0.375000 0.000000
0.234544 -0.406250 0.000000
0.252586 -0.437500 0.000000
0.270628 -0.468750 0.000000
0.036084 0.000000 0.000000
0.072169 0.000000 0.000000
0.108253 0.000000 0.000000
0.144337 0.000000 0.000000
0.180422 0.000000 0.000000
0.216506 0.000000 0.000000
0.252591 0.000000 0.000000
0.288675 0.000000 0.000000
0.324759 0.000000 0.000000
0.360844 0.000000 0.000000
0.396928 0.000000 0.000000
0.433012 0.000000 0.000000
0.469097 0.000000 0.000000
0.505181 0.000000 0.000000
0.541266 0.000000 0.000000
0.018042 0.031250 0.000000
0.036084 0.062500 0.000000
0.054126 0.093750 0.000000
0.072167 0.125000 0.000000
0.090209 0.156250 0.000000
0.108251 0.187500 0.000000
0.126293 0.218750 0.000000
0.144335 0.250000 0.000000
0.162377 0.281250 0.000000
0.180419 0.312500 0.000000
0.198461 0.343750 0.000000
0.216502 0.375000 0.000000
0.234544 0.406250 0.000000
0.252586 0.437500 0.000000
0.270628 0.468750 0.000000
-0.018042 0.031250 0.000000
-0.036084 0.062500 0.000000
-0.054126 0.093750 0.000000
-0.072167 0.125000 0.000000
-0.090209 0.156250 0.000000
-0.108251 0.187500 0.000000
-0.126293 0.218750 0.000000
-0.144335 0.250000 0.000000
-0.162377 0.281250 0.000000
-0.180419 0.312500 0.000000
-0.198461 0.343750 0.000000
-0.216502 0.375000 0.000000
-0.234544 0.406250 0.000000
-0.252586 0.437500 0.000000
-0.270628 0.468750 0.000000
-0.036084 0.000000 0.000000
-0.072169 0.000000 0.000000
-0.108253 0.000000 0.000000
-0.144337 0.000000 0.000000
-0.180422 0.000000 0.000000
-0.216506 0.000000 0.000000
-0.252591 0.000000 0.000000
-0.288675 0.000000 0.000000
-0.324759 0.000000 0.000000
-0.360844 0.000000 0.000000
-0.396928 0.000000 0.000000
-0.433012 0.000000 0.000000
-0.469097 0.000000 0.000000
-0.505181 0.000000 0.000000
-0.541266 0.000000 0.000000
-0.018042 -0.031250 0.000000
-0.036084 -0.062500 0.000000
-0.054126 -0.093750 0.000000
-0.072167 -0.125000 0.000000
-0.090209 -0.156250 0.000000
-0.108251 -0.187500 0.000000
-0.126293 -0.218750 0.000000
-0.144335 -0.250000 0.000000
-0.162377 -0.281250 0.000000
-0.180419 -0.312500 0.000000
-0.198461 -0.343750 0.000000
-0.216502 -0.375000 0.000000
-0.234544 -0.406250 0.000000
-0.252586 -0.437500 0.000000
-0.270628 -0.468750 0.000000
0.288672 -0.250000 0.000000
0.360842 -0.125000 0.000000
0.216505 -0.125000 0.000000
0.288671 -0.375000 0.000000
0.324756 -0.312500 0.000000
0.252587 -0.312500 0.000000
0.360841 -0.250000 0.000000
0.216504 -0.250000 0.000000
0.396926 -0.187500 0.000000
0.324757 -0.187500 0.000000
0.288674 -0.125000 0.000000
0.252589 -0.187500 0.000000
0.324759 -0.062500 0.000000
0.252590 -0.062500 0.000000
0.180420 -0.187500 0.000000
0.433011 -0.125000 0.000000
0.469096 -0.062500 0.000000
0.396927 -0.062500 0.000000
0.144336 -0.125000 0.000000
0.180421 -0.062500 0.000000
0.108252 -0.062500 0.000000
0.288671 -0.437500 0.000000
0.306713 -0.406250 0.000000
0.270629 -0.406250 0.000000
0.324756 -0.375000 0.000000
0.252587 -0.375000 0.000000
0.342798 -0.343750 0.000000
0.306714 -0.343750 0.000000
0.288672 -0.312500 0.000000
0.270629 -0.343750 0.000000
0.306714 -0.281250 0.000000
0.270630 -0.281250 0.000000
0.234545 -0.343750 0.000000
0.360841 -0.312500 0.000000
0.378883 -0.281250 0.000000
0.342799 -0.281250 0.000000
0.396926 -0.250000 0.000000
0.324757 -0.250000 0.000000
0.216503 -0.312500 0.000000
0.234546 -0.281250 0.000000
0.198461 -0.281250 0.000000
0.252588 -0.250000 0.000000
0.180419 -0.250000 0.000000
0.414968 -0.218750 0.000000
0.378884 -0.218750 0.000000
0.360842 -0.187500 0.000000
0.342799 -0.218750 0.000000
0.378884 -0.156250 0.000000
0.342800 -0.156250 0.000000
0.306715 -0.218750 0.000000
0.324758 -0.125000 0.000000
0.306716 -0.156250 0.000000
0.270631 -0.156250 0.000000
0.288673 -0.187500 0.000000
0.252589 -0.125000 0.000000
0.234547 -0.156250 0.000000
0.270631 -0.218750 0.000000
0.342801 -0.093750 0.000000
0.306716 -0.093750 0.000000
0.288674 -0.062500 0.000000
0.270632 -0.093750 0.000000
0.306717 -0.031250 0.000000
0.270632 -0.031250 0.000000
0.234547 -0.093750 0.000000
0.234546 -0.218750 0.000000
0.216504 -0.187500 0.000000
0.198462 -0.218750 0.000000
0.198462 -0.156250 0.000000
0.162377 -0.218750 0.000000
0.433011 -0.187500 0.000000
0.451053 -0.156250 0.000000
0.414969 -0.156250 0.000000
0.469096 -0.125000 0.000000
0.396927 -0.125000 0.000000
0.487138 -0.093750 0.000000
0.451054 -0.093750 0.000000
0.433012 -0.062500 0.000000
0.414969 -0.093750 0.000000
0.451054 -0.031250 0.000000
0.414970 -0.031250 0.000000
0.378885 -0.093750 0.000000
0.505181 -0.062500 0.000000
0.523223 -0.031250 0.000000
0.487139 -0.031250 0.000000
0.360843 -0.062500 0.000000
0.378886 -0.031250 0.000000
0.342801 -0.031250 0.000000
0.144336 -0.187500 0.000000
0.162378 -0.156250 0.000000
0.126294 -0.156250 0.000000
0.180421 -0.125000 0.000000
0.108252 -0.125000 0.000000
0.198463 -0.093750 0.000000
0.162379 -0.093750 0.000000
0.144337 -0.062500 0.000000
0.126294 -0.093750 0.000000
0.162379 -0.031250 0.000000
0.126295 -0.031250 0.000000
0.090210 -0.093750 0.000000
0.216506 -0.062500 0.000000
0.234548 -0.031250 0.000000
0.198464 -0.031250 0.000000
0.072168 -0.062500 0.000000
0.090211 -0.031250 0.000000
0.054126 -0.031250 0.000000
0.360842 0.125000 0.000000
0.288672 0.250000 0.000000
0.216505 0.125000 0.000000
0.469096 0.062500 0.000000
0.433011 0.125000 0.000000
0.396927 0.062500 0.000000
0.396926 0.187500 0.000000
0.324759 0.062500 0.000000
0.360841 0.250000 0.000000
0.324757 0.187500 0.000000
0.252589 0.187500 0.000000
0.288674 0.125000 0.000000
0.216504 0.250000 0.000000
0.180420 0.187500 0.000000
0.252590 0.062500 0.000000
0.324756 0.312500 0.000000
0.288671 0.375000 0.000000
0.252587 0.312500 0.000000
0.180421 0.062500 0.000000
0.144336 0.125000 0.000000
0.108252 0.062500 0.000000
0.523223 0.031250 0.000000
0.505181 0.062500 0.000000
0.487139 0.031250 0.000000
0.487138 0.093750 0.000000
0.451054 0.031250 0.000000
0.469096 0.125000 0.000000
0.451054 0.093750 0.000000
0.414969 0.093750 0.000000
0.433012 0.062500 0.000000
0.396927 0.125000 0.000000
0.378885 0.093750 0.000000
0.414970 0.031250 0.000000
0.451053 0.156250 0.000000
0.433011 0.187500 0.000000
0.414969 0.156250 0.000000
0.414968 0.218750 0.000000
0.378884 0.156250 0.000000
0.378886 0.031250 0.000000
0.360843 0.062500 0.000000
0.342801 0.031250 0.000000
0.342801 0.093750 0.000000
0.306717 0.031250 0.000000
0.396926 0.250000 0.000000
0.378884 0.218750 0.000000
0.342799 0.218750 0.000000
0.360842 0.187500 0.000000
0.324757 0.250000 0.000000
0.306715 0.218750 0.000000
0.342800 0.156250 0.000000
0.270631 0.218750 0.000000
0.288673 0.187500 0.000000
0.270631 0.156250 0.000000
0.306716 0.156250 0.000000
0.234547 0.156250 0.000000
0.252589 0.125000 0.000000
0.324758 0.125000 0.000000
0.252588 0.250000 0.000000
0.234546 0.218750 0.000000
0.198462 0.218750 0.000000
0.216504 0.187500 0.000000
0.180419 0.250000 0.000000
0.162377 0.218750 0.000000
0.198462 0.156250 0.000000
0.306716 0.093750 0.000000
[...]
POINT_DATA 817
SCALARS solution_0 double
LOOKUP_TABLE defaul
0.000000
0.000000
0.000000
0.000000
0.000000
0.000000
2.096239
0.000000
0.000000
0.000000
0.000000
0.000000
0.000000
0.000000
0.000000
0.000000
0.000000
0.000000
0.000000
0.000000
0.000000
0.000000
0.000000
0.000000
0.000000
0.000000
0.000000
0.000000
0.000000
0.000000
0.000000
0.000000
0.000000
0.000000
0.000000
0.000000
0.000000
0.000000
0.000000
0.000000
0.000000
0.000000
0.000000
0.000000
0.000000
0.000000
0.000000
0.000000
0.000000
0.000000
0.000000
0.000000
0.000000
0.000000
0.000000
0.000000
0.000000
0.000000
0.000000
0.000000
0.000000
0.000000
0.000000
0.000000
0.000000
0.000000
0.000000
0.000000
0.000000
0.000000
0.000000
0.000000
0.000000
0.000000
0.000000
0.000000
0.000000
0.000000
0.000000
0.000000
0.000000
0.000000
0.000000
0.000000
0.000000
0.000000
0.000000
0.000000
0.000000
0.000000
0.000000
0.000000
0.000000
0.000000
0.000000
0.000000
0.000000
2.081617
2.038059
1.966485
1.868424
1.746011
1.601977
1.439637
1.262872
1.076113
0.884317
0.692965
0.508093
0.336428
0.185828
0.066833
2.081618
2.038061
1.966487
1.868427
1.746014
1.601980
1.439640
1.262875
1.076115
0.884318
0.692966
0.508093
0.336427
0.185827
0.066832
2.081616
2.038057
1.966481
1.868417
1.746002
1.601965
1.439623
1.262857
1.076096
0.884300
0.692949
0.508078
0.336415
0.185819
0.066828
2.081617
2.038059
1.966485
1.868424
1.746011
1.601977
1.439637
1.262872
1.076113
0.884317
0.692965
0.508093
0.336428
0.185828
0.066833
2.081618
2.038061
1.966487
1.868427
1.746014
1.601980
1.439640
1.262875
1.076115
0.884318
0.692966
0.508093
0.336427
0.185827
0.066832
2.081616
2.038057
1.966481
1.868417
1.746002
1.601965
1.439623
1.262857
1.076096
0.884300
0.692949
0.508078
0.336415
0.185819
0.066828
0.740824
0.740824
1.448130
0.292235
0.355532
0.654845
0.385985
1.039016
0.385985
0.769260
1.116909
1.116909
1.039017
1.401310
1.401309
0.355532
0.292235
0.654845
1.705593
1.705594
1.924095
0.106184
0.134218
0.245780
0.155489
0.409500
0.171661
0.328315
0.513350
0.467879
0.546906
0.705138
0.589449
0.183448
0.191181
0.374634
0.195016
0.569071
0.778740
0.847107
0.971166
0.898285
1.161059
0.195016
0.389753
0.580101
0.580101
0.569071
0.762159
0.762159
0.932379
0.949423
1.126674
0.949423
1.290114
1.290113
0.932379
0.898286
1.087653
1.225342
1.268468
1.161061
1.343258
1.436394
1.087653
1.268468
1.225341
1.436393
1.343257
0.191180
0.183447
0.374633
0.171661
0.546906
0.155489
0.328314
0.467879
0.513350
0.409500
0.589449
0.705138
0.134217
0.106183
0.245779
0.847107
0.778741
0.971167
1.513105
1.562643
1.666482
1.587580
1.799817
1.587580
1.718698
1.826956
1.826955
1.799819
1.910113
1.910112
1.562645
1.513107
1.666484
1.994954
1.994955
2.052528
0.740823
0.740816
1.448124
0.292235
0.355532
0.654845
0.385983
1.039016
0.385981
0.769256
1.116902
1.116906
1.039004
1.401299
1.401308
0.355527
0.292228
0.654833
1.705591
1.705586
1.924092
0.106184
0.134218
0.245780
0.155490
0.409500
0.171661
0.328315
0.513350
0.467879
0.546906
0.705138
0.589449
0.183447
0.191180
0.374633
0.195015
0.569069
0.778741
0.847107
0.971167
0.898284
1.161060
0.195014
0.389750
0.580097
0.580099
0.569066
0.762154
0.762157
0.932371
0.949418
1.126669
0.949419
1.290107
1.290109
0.932377
0.898275
1.087643
1.225329
1.268459
1.161045
1.343244
1.436385
1.087651
1.268465
1.225340
1.436390
1.343258
0.191178
0.183445
0.374629
0.171658
0.546899
0.155486
0.328308
0.467869
0.513341
0.409489
0.589435
0.705129
0.134213
0.106179
0.245771
0.847095
0.778726
0.971152
1.513106
1.562642
1.666482
1.587576
1.799817
1.587574
1.718693
1.826950
1.826953
1.799810
1.910107
1.910112
1.562635
1.513094
1.666473
1.994953
1.994951
2.052526
1.448120
0.740813
0.740820
1.924089
1.705582
1.705586
1.401295
1.401304
1.039001
1.116898
0.769253
1.116902
0.385980
0.385982
1.039013
0.654832
0.292227
0.355525
0.654844
0.355531
0.292235
2.052525
1.994950
1.994951
1.910105
1.910108
1.799808
1.826947
1.718689
1.826949
1.587569
1.587571
1.799813
1.666471
1.513092
1.562631
1.343242
1.436381
1.666478
1.562637
1.513102
1.436385
1.343254
1.161044
1.225326
1.087640
1.268455
0.898272
0.932368
1.290102
0.762150
0.949414
0.949416
1.126664
0.762154
0.932373
1.290104
0.569063
0.580095
0.389748
0.580096
0.195014
0.195014
0.569067
1.268461
1.087647
1.225336
0.898281
1.161057
0.971150
0.778725
0.847093
0.589434
0.705126
0.409488
0.467868
0.328307
0.513340
0.155485
0.171657
0.546897
0.245771
0.106179
0.134213
0.374627
0.183444
0.191178
0.971165
0.847105
0.778739
0.705135
0.589448
0.546904
0.513349
0.328314
0.467879
0.171661
0.155489
0.409500
0.374631
0.191179
0.183447
0.245780
0.134218
0.106184
0.740824
1.448130
0.740824
0.292235
0.654845
0.355532
1.039017
0.385985
1.401310
1.116909
1.116909
0.769260
1.401309
1.039016
0.385985
1.705594
1.924095
1.705593
0.355532
0.654845
0.292235
0.106183
0.245779
0.134217
0.409500
0.155489
0.589449
0.467879
0.513350
0.328314
0.705138
0.546906
0.171661
0.778741
0.971167
0.847107
1.161061
0.898286
0.183447
0.374633
0.191180
0.569071
0.195016
1.343258
1.225342
1.268468
1.087653
1.436394
1.290114
0.932379
1.290113
1.126674
0.949423
0.949423
0.932379
0.762159
0.762159
1.436393
1.268468
1.225341
1.087653
1.343257
1.161059
0.898285
0.580101
0.580101
0.389753
0.569071
0.195016
1.513107
1.666484
1.562645
1.799819
1.587580
1.910113
1.826956
1.826955
1.718698
1.910112
1.799817
1.587580
1.994955
2.052528
1.994954
1.562643
1.666482
1.513105
0.191181
0.374634
0.183448
0.546906
0.171661
0.705138
0.513350
0.467879
0.328315
0.589449
0.409500
0.155489
0.847107
0.971166
0.778740
0.134218
0.245780
0.106184
0.740816
1.448124
0.740823
0.292228
0.654833
0.355527
1.039004
0.385981
1.401299
1.116902
1.116906
0.769256
1.401308
1.039016
0.385983
1.705586
1.924092
1.705591
0.355532
0.654845
0.292235
0.106179
0.245771
0.134213
0.409489
0.155486
0.589435
0.467869
0.513341
0.328308
0.705129
0.546899
0.171658
0.778726
0.971152
0.847095
1.161045
0.898275
0.183445
0.374629
0.191178
0.569066
0.195014
1.343244
1.225329
1.268459
1.087643
1.436385
1.290107
0.932371
1.290109
1.126669
0.949419
0.949418
0.932377
0.762157
0.762154
1.436390
1.268465
1.225340
1.087651
1.343258
1.161060
0.898284
0.580097
0.580099
0.389750
0.569069
0.195015
1.513094
1.666473
1.562635
1.799810
1.587574
1.910107
1.826950
1.826953
1.718693
1.910112
1.799817
1.587576
1.994951
2.052526
1.994953
1.562642
1.666482
1.513106
0.191180
0.374633
0.183447
0.546906
0.171661
0.705138
0.513350
0.467879
0.328315
0.589449
0.409500
0.155490
0.847107
0.971167
0.778741
0.134218
0.245780
0.106184
0.740813
0.740820
1.448120
0.292227
0.355525
0.654832
0.385980
1.039001
0.385982
0.769253
1.116902
1.116898
1.039013
1.401304
1.401295
0.355531
0.292235
0.654844
1.705582
1.705586
1.924089
0.106179
0.134213
0.245771
0.155485
0.409488
0.171657
0.328307
0.513340
0.467868
0.546897
0.705126
0.589434
0.183444
0.191178
0.374627
0.195014
0.569063
0.778725
0.847093
0.971150
0.898272
1.161044
0.195014
0.389748
0.580096
0.580095
0.569067
0.762154
0.762150
0.932373
0.949416
1.126664
0.949414
1.290104
1.290102
0.932368
0.898281
1.087647
1.225336
1.268461
1.161057
1.343254
1.436385
1.087640
1.268455
1.225326
1.436381
1.343242
0.191179
0.183447
0.374631
0.171661
0.546904
0.155489
0.328314
0.467879
0.513349
0.409500
0.589448
0.705135
0.134218
0.106184
0.245780
0.847105
0.778739
0.971165
1.513092
1.562631
1.666471
1.587569
1.799808
1.587571
1.718689
1.826949
1.826947
1.799813
1.910108
1.910105
1.562637
1.513102
1.666478
1.994950
1.994951
2.052525
SCALARS solution_1 double
LOOKUP_TABLE defaul
0.000000
0.000000
0.000000
0.000000
0.000000
0.000000
-0.000000
0.000000
0.000000
0.000000
0.000000
0.000000
0.000000
0.000000
0.000000
0.000000
0.000000
0.000000
0.000000
0.000000
0.000000
0.000000
0.000000
0.000000
0.000000
0.000000
0.000000
0.000000
0.000000
0.000000
0.000000
0.000000
0.000000
0.000000
0.000000
0.000000
0.000000
0.000000
0.000000
0.000000
0.000000
0.000000
0.000000
0.000000
0.000000
0.000000
0.000000
0.000000
0.000000
0.000000
0.000000
0.000000
0.000000
0.000000
0.000000
0.000000
0.000000
0.000000
0.000000
0.000000
0.000000
0.000000
0.000000
0.000000
0.000000
0.000000
0.000000
0.000000
0.000000
0.000000
0.000000
0.000000
0.000000
0.000000
0.000000
0.000000
0.000000
0.000000
0.000000
0.000000
0.000000
0.000000
0.000000
0.000000
0.000000
0.000000
0.000000
0.000000
0.000000
0.000000
0.000000
0.000000
0.000000
0.000000
0.000000
0.000000
0.000000
-0.255953
-0.498397
-0.714644
-0.893597
-1.026434
-1.107152
-1.132952
-1.104435
-1.025611
-0.903710
-0.748845
-0.573562
-0.392395
-0.221709
-0.080811
-0.504292
-0.981969
-1.408030
-1.760615
-2.022339
-2.181375
-2.232208
-2.176024
-2.020720
-1.780544
-1.475420
-1.130065
-0.773118
-0.436822
-0.159218
-0.248343
-0.483579
-0.693396
-0.867028
-0.995914
-1.074231
-1.099261
-1.071591
-0.995108
-0.876830
-0.726569
-0.556497
-0.380717
-0.215109
-0.078404
0.255953
0.498397
0.714644
0.893597
1.026434
1.107152
1.132952
1.104435
1.025611
0.903710
0.748845
0.573562
0.392395
0.221709
0.080811
0.504292
0.981969
1.408030
1.760615
2.022339
2.181375
2.232208
2.176024
2.020720
1.780544
1.475420
1.130065
0.773118
0.436822
0.159218
0.248343
0.483579
0.693396
0.867028
0.995914
1.074231
1.099261
1.071591
0.995108
0.876830
0.726569
0.556497
0.380717
0.215109
0.078404
-1.144823
-1.445637
-1.930052
-0.398129
-0.554885
-0.871847
-0.682726
-1.291991
-0.759901
-1.351670
-1.874755
-1.637833
-1.938594
-2.162057
-1.549927
-0.762058
-0.665164
-1.383256
-1.581043
-1.968943
-1.376539
-0.135219
-0.181657
-0.312837
-0.224544
-0.514823
-0.264666
-0.479062
-0.747736
-0.633742
-0.854002
-1.013792
-0.723823
-0.301512
-0.333983
-0.623645
-0.360689
-0.948803
-0.923563
-1.096215
-1.099251
-1.260900
-1.238150
-0.380105
-0.729171
-1.086630
-1.027855
-1.120605
-1.415647
-1.259414
-1.701288
-1.638325
-1.774127
-1.539185
-1.953329
-1.813691
-1.410944
-1.721555
-1.931870
-2.099396
-2.051302
-2.090828
-2.199679
-2.069448
-1.474275
-1.641547
-1.446506
-1.753427
-1.330152
-0.390667
-0.390822
-0.771855
-0.379015
-1.125438
-0.353558
-0.727564
-1.031584
-1.097053
-0.925107
-1.282256
-1.436388
-0.312209
-0.250899
-0.570612
-1.693467
-1.612484
-1.889412
-1.368256
-1.595744
-1.348889
-1.804145
-1.272040
-1.982136
-1.791652
-1.717582
-1.506562
-1.893119
-1.587014
-1.141174
-2.118933
-2.204908
-2.101990
-0.962961
-1.198346
-0.746818
-1.437272
-1.127234
-1.910720
-0.663934
-0.758638
-1.379802
-0.753856
-1.932326
-0.674314
-1.338126
-1.616606
-1.860792
-1.265900
-1.521958
-2.152849
-0.545110
-0.388706
-0.852710
-1.957112
-1.557323
-1.362756
-0.250740
-0.311738
-0.570141
-0.352641
-0.924187
-0.377544
-0.725331
-1.093169
-1.029344
-1.119684
-1.430594
-1.280771
-0.388723
-0.387906
-0.767136
-0.376691
-1.112872
-1.610344
-1.688651
-1.886558
-1.713678
-2.087227
-0.356679
-0.721864
-1.016359
-1.076937
-0.935800
-1.243617
-1.404641
-1.390902
-1.521747
-1.756353
-1.623928
-1.792683
-1.936601
-1.690149
-1.238899
-1.450200
-1.418742
-1.616771
-1.208413
-1.299153
-1.729438
-1.921824
-2.039087
-2.091645
-2.055146
-2.195331
-0.329482
-0.296673
-0.614380
-0.259687
-0.839922
-0.219668
-0.469205
-0.619299
-0.733138
-0.501318
-0.705213
-0.995038
-0.177180
-0.131509
-0.304457
-1.073086
-0.900301
-1.072173
-2.199839
-2.108349
-2.096253
-1.965903
-1.886790
-1.782457
-1.773709
-1.487186
-1.704673
-1.246678
-1.120685
-1.580188
-1.569126
-1.337545
-1.320073
-1.191134
-0.948536
-0.739342
0.019311
-0.292467
0.318382
0.013777
-0.376084
0.411610
-0.602939
0.640085
-0.640348
-0.222982
0.013520
0.258124
-0.071144
0.085572
0.672678
-0.507961
-0.265806
-0.203761
0.530532
0.216936
0.276451
0.007475
-0.228178
0.249811
-0.439024
0.466329
-0.614762
-0.198122
0.017929
0.230388
-0.161776
0.199663
0.646441
-0.747376
-0.831596
-0.512622
-0.865189
-0.301739
0.781915
0.549795
0.867359
0.339991
0.900520
-0.849085
-0.645154
-0.447568
-0.397561
-0.452794
-0.279227
-0.122934
-0.145249
-0.084767
0.116554
0.017749
0.172008
0.310363
0.160623
-0.164086
-0.049102
0.007292
0.070251
-0.016010
0.023418
0.184786
0.434511
0.481649
0.680639
0.482636
0.882407
-0.787312
-0.686784
-0.592446
-0.556948
-0.416815
-0.409362
-0.395606
-0.246274
-0.345442
-0.128098
-0.112882
-0.265696
-0.257301
-0.115519
-0.130080
-0.143502
-0.087217
-0.053930
0.817230
0.620365
0.712173
0.441332
0.577033
0.285499
0.363902
0.258349
0.412275
0.119322
0.133885
0.423781
0.157461
0.061177
0.094142
0.266150
0.135026
0.119387
1.445637
1.930052
1.144823
0.665164
1.383256
0.762058
1.938594
0.759901
2.162057
1.874755
1.637833
1.351670
1.549927
1.291991
0.682726
1.968943
1.376539
1.581043
0.554885
0.871847
0.398129
0.250899
0.570612
0.312209
0.925107
0.353558
1.282256
1.031584
1.097053
0.727564
1.436388
1.125438
0.379015
1.612484
1.889412
1.693467
2.090828
1.721555
0.390822
0.771855
0.390667
1.120605
0.380105
2.199679
2.099396
2.051302
1.931870
2.069448
1.953329
1.701288
1.813691
1.774127
1.539185
1.638325
1.410944
1.259414
1.415647
1.753427
1.641547
1.446506
1.474275
1.330152
1.238150
1.260900
1.086630
1.027855
0.729171
0.948803
0.360689
2.204908
2.101990
2.118933
1.893119
1.982136
1.587014
1.717582
1.506562
1.791652
1.141174
1.272040
1.804145
1.198346
0.746818
0.962961
1.595744
1.348889
1.368256
0.333983
0.623645
0.301512
0.854002
0.264666
1.013792
0.747736
0.633742
0.479062
0.723823
0.514823
0.224544
1.096215
1.099251
0.923563
0.181657
0.312837
0.135219
1.127234
1.910720
1.437272
0.388706
0.852710
0.545110
1.265900
0.674314
1.521958
1.616606
1.860792
1.338126
2.152849
1.932326
0.753856
1.557323
1.362756
1.957112
0.758638
1.379802
0.663934
0.131509
0.304457
0.177180
0.501318
0.219668
0.705213
0.619299
0.733138
0.469205
0.995038
0.839922
0.259687
0.900301
1.072173
1.073086
1.208413
1.238899
0.296673
0.614380
0.329482
0.935800
0.356679
1.299153
1.418742
1.616771
1.450200
1.729438
1.792683
1.390902
1.936601
1.756353
1.623928
1.521747
1.690149
1.404641
1.243617
2.055146
2.039087
2.091645
1.921824
2.195331
2.087227
1.713678
1.016359
1.076937
0.721864
1.112872
0.376691
1.337545
1.320073
1.569126
1.246678
1.782457
1.120685
1.487186
1.704673
1.773709
1.580188
1.886790
1.965903
0.948536
0.739342
1.191134
2.108349
2.096253
2.199839
0.387906
0.767136
0.388723
1.119684
0.377544
1.430594
1.093169
1.029344
0.725331
1.280771
0.924187
0.352641
1.688651
1.886558
1.610344
0.311738
0.570141
0.250740
0.292467
-0.318382
-0.019311
0.265806
0.203761
0.507961
0.071144
0.640348
-0.085572
-0.013520
-0.258124
0.222982
-0.672678
-0.640085
0.602939
-0.216936
-0.276451
-0.530532
0.376084
-0.411610
-0.013777
0.115519
0.130080
0.257301
0.128098
0.409362
0.112882
0.246274
0.345442
0.395606
0.265696
0.416815
0.556948
0.087217
0.053930
0.143502
0.016010
0.164086
0.686784
0.592446
0.787312
0.452794
0.849085
-0.023418
-0.007292
-0.070251
0.049102
-0.184786
-0.172008
0.145249
-0.310363
-0.116554
-0.017749
0.084767
-0.160623
0.122934
0.279227
-0.482636
-0.481649
-0.680639
-0.434511
-0.882407
-0.900520
-0.339991
0.447568
0.397561
0.645154
0.301739
0.865189
-0.061177
-0.094142
-0.157461
-0.119322
-0.285499
-0.133885
-0.258349
-0.412275
-0.363902
-0.423781
-0.577033
-0.441332
-0.135026
-0.119387
-0.266150
-0.620365
-0.712173
-0.817230
0.831596
0.512622
0.747376
0.161776
0.614762
-0.199663
-0.017929
-0.230388
0.198122
-0.646441
-0.466329
0.439024
-0.549795
-0.867359
-0.781915
0.228178
-0.249811
-0.007475
SCALARS solution_2 double
LOOKUP_TABLE defaul
0.000000
0.000000
0.000000
0.000000
0.000000
0.000000
0.000000
0.000000
0.000000
0.000000
0.000000
0.000000
0.000000
0.000000
0.000000
0.000000
0.000000
0.000000
0.000000
0.000000
0.000000
0.000000
0.000000
0.000000
0.000000
0.000000
0.000000
0.000000
0.000000
0.000000
0.000000
0.000000
0.000000
0.000000
0.000000
0.000000
0.000000
0.000000
0.000000
0.000000
0.000000
0.000000
0.000000
0.000000
0.000000
0.000000
0.000000
0.000000
0.000000
0.000000
0.000000
0.000000
0.000000
0.000000
0.000000
0.000000
0.000000
0.000000
0.000000
0.000000
0.000000
0.000000
0.000000
0.000000
0.000000
0.000000
0.000000
0.000000
0.000000
0.000000
0.000000
0.000000
0.000000
0.000000
0.000000
0.000000
0.000000
0.000000
0.000000
0.000000
0.000000
0.000000
0.000000
0.000000
0.000000
0.000000
0.000000
0.000000
0.000000
0.000000
0.000000
0.000000
0.000000
0.000000
0.000000
0.000000
0.000000
0.434534
0.846134
1.213259
1.517071
1.742591
1.879629
1.923431
1.875020
1.741200
1.534248
1.271332
0.973749
0.666178
0.376401
0.137195
-0.004392
-0.008552
-0.012263
-0.015334
-0.017614
-0.019000
-0.019443
-0.018954
-0.017602
-0.015511
-0.012853
-0.009845
-0.006736
-0.003806
-0.001387
-0.438933
-0.854699
-1.225539
-1.532425
-1.760225
-1.898646
-1.942887
-1.893981
-1.758802
-1.549752
-1.284172
-0.983578
-0.672898
-0.380193
-0.138575
-0.434534
-0.846134
-1.213259
-1.517071
-1.742591
-1.879629
-1.923431
-1.875020
-1.741200
-1.534248
-1.271332
-0.973749
-0.666178
-0.376401
-0.137195
0.004392
0.008552
0.012263
0.015334
0.017614
0.019000
0.019443
0.018954
0.017602
0.015511
0.012853
0.009845
0.006736
0.003806
0.001387
0.438933
0.854699
1.225539
1.532425
1.760225
1.898646
1.942887
1.893981
1.758802
1.549752
1.284172
0.983578
0.672898
0.380193
0.138575
0.998676
0.466999
1.092017
0.536792
0.555647
1.089912
0.476319
1.485347
0.339915
0.764771
0.784331
1.203080
0.342506
0.509159
1.591067
0.189475
0.064816
0.186018
1.347080
0.661487
0.778839
0.211463
0.255088
0.477731
0.277558
0.769935
0.283150
0.560962
0.830591
0.822704
0.799858
1.066613
1.061019
0.274786
0.255096
0.525762
0.226728
0.737260
1.326260
1.317004
1.543772
1.250825
1.695292
0.192411
0.412563
0.546243
0.650126
0.433605
0.618702
0.894839
0.623860
0.811299
1.003796
0.986526
0.942282
1.189086
1.137031
0.436638
0.559204
0.426154
0.682589
0.188229
0.230160
0.802209
1.367981
1.406812
1.580104
1.360760
1.767002
0.154908
0.116933
0.263807
0.081042
0.320103
0.049530
0.121743
0.119531
0.213185
0.044773
0.074013
0.319690
0.024340
0.007002
0.022121
0.261387
0.108624
0.147200
1.750208
1.513228
1.641777
1.228427
1.444276
0.913837
1.013709
0.725620
1.098586
0.346554
0.377798
1.165796
0.588521
0.271471
0.310714
0.819443
0.403413
0.422545
-0.492121
-1.018474
-1.125485
-0.076397
-0.202728
-0.210092
-0.353108
-0.376232
-0.488146
-0.788212
-1.231441
-0.816882
-1.507635
-1.617838
-0.546752
-0.565230
-0.543641
-1.104933
-0.695692
-1.374432
-0.802708
-0.011372
-0.029777
-0.032061
-0.055684
-0.060885
-0.087635
-0.134403
-0.232270
-0.137489
-0.339668
-0.344672
-0.096343
-0.123727
-0.161694
-0.277219
-0.199007
-0.453069
-0.136702
-0.290855
-0.180096
-0.466571
-0.224626
-0.232981
-0.425209
-0.667941
-0.565098
-0.753683
-0.916652
-0.643280
-1.161448
-1.013201
-1.034561
-0.839728
-1.220513
-0.976178
-0.653412
-1.272607
-1.393466
-1.605073
-1.435207
-1.716610
-1.789916
-1.391112
-0.592782
-0.718229
-0.462667
-0.838147
-0.268446
-0.260878
-0.279999
-0.536551
-0.287718
-0.814618
-0.281426
-0.569221
-0.833615
-0.843491
-0.778777
-1.073460
-1.084115
-0.258209
-0.213781
-0.483099
-1.335903
-1.342144
-1.562688
-0.309841
-0.625350
-0.347285
-0.948238
-0.379481
-1.259682
-1.044777
-1.124676
-0.755437
-1.466232
-1.185512
-0.405389
-1.540811
-1.773792
-1.665041
-0.424230
-0.836103
-0.435495
-2.217472
-1.490768
-1.485452
-1.581537
-2.042761
-2.035894
-2.137802
-2.126970
-1.861557
-2.019930
-1.552953
-2.015740
-0.829408
-0.828046
-1.850122
-1.299982
-0.613174
-0.758357
-1.290945
-0.754699
-0.608461
-0.858039
-1.243675
-1.239506
-1.571188
-1.563293
-1.823761
-1.854014
-2.058466
-1.850277
-2.176642
-2.173491
-1.812764
-1.989063
-2.060048
-2.138564
-2.035443
-2.198882
-1.975731
-2.129304
-2.045240
-2.193290
-2.020057
-1.919908
-2.042753
-1.960736
-2.125015
-1.717368
-1.790413
-2.165232
-1.538089
-1.826221
-1.824469
-2.038323
-1.535328
-1.785280
-2.162762
-1.190304
-1.215200
-0.837755
-1.214161
-0.425726
-0.425383
-1.187269
-2.117766
-1.952643
-2.031202
-1.709224
-1.904825
-1.723854
-1.462945
-1.607837
-1.157343
-1.411260
-0.830802
-0.960173
-0.695349
-1.062839
-0.333233
-0.370776
-1.139502
-0.509778
-0.222828
-0.284856
-0.802963
-0.398504
-0.416780
-1.709881
-1.597278
-1.450767
-1.403792
-1.147477
-1.134707
-1.056669
-0.690962
-0.953148
-0.368758
-0.330957
-0.823558
-0.800346
-0.415780
-0.396928
-0.505230
-0.282554
-0.220789