# vtk DataFile Version 2.0
MyTitle
ASCII
DATASET UNSTRUCTURED_GRID
POINTS 1761 double
0.000000 0.000000 0.000000
1.000000 0.000000 0.000000
1.000000 1.000000 0.000000
0.000000 1.000000 0.000000
0.420000 0.420000 0.000000
0.580000 0.420000 0.000000
0.580000 0.580000 0.000000
0.420000 0.580000 0.000000
0.358579 0.358579 0.000000
0.641421 0.358579 0.000000
0.641421 0.641421 0.000000
0.358579 0.641421 0.000000
2.000000 0.000000 0.000000
2.000000 1.000000 0.000000
1.420000 0.420000 0.000000
1.580000 0.420000 0.000000
1.580000 0.580000 0.000000
1.420000 0.580000 0.000000
1.358579 0.358579 0.000000
1.641421 0.358579 0.000000
1.641421 0.641421 0.000000
1.358579 0.641421 0.000000
3.000000 0.000000 0.000000
3.000000 1.000000 0.000000
2.420000 0.420000 0.000000
2.580000 0.420000 0.000000
2.580000 0.580000 0.000000
2.420000 0.580000 0.000000
2.358579 0.358579 0.000000
2.641421 0.358579 0.000000
2.641421 0.641421 0.000000
2.358579 0.641421 0.000000
4.000000 0.000000 0.000000
4.000000 1.000000 0.000000
3.420000 0.420000 0.000000
3.580000 0.420000 0.000000
3.580000 0.580000 0.000000
3.420000 0.580000 0.000000
3.358579 0.358579 0.000000
3.641421 0.358579 0.000000
3.641421 0.641421 0.000000
3.358579 0.641421 0.000000
1.000000 2.000000 0.000000
0.000000 2.000000 0.000000
0.420000 1.420000 0.000000
0.580000 1.420000 0.000000
0.580000 1.580000 0.000000
0.420000 1.580000 0.000000
0.358579 1.358579 0.000000
0.641421 1.358579 0.000000
0.641421 1.641421 0.000000
0.358579 1.641421 0.000000
2.000000 2.000000 0.000000
1.420000 1.420000 0.000000
1.580000 1.420000 0.000000
1.580000 1.580000 0.000000
1.420000 1.580000 0.000000
1.358579 1.358579 0.000000
1.641421 1.358579 0.000000
1.641421 1.641421 0.000000
1.358579 1.641421 0.000000
3.000000 2.000000 0.000000
2.420000 1.420000 0.000000
2.580000 1.420000 0.000000
2.580000 1.580000 0.000000
2.420000 1.580000 0.000000
2.358579 1.358579 0.000000
2.641421 1.358579 0.000000
2.641421 1.641421 0.000000
2.358579 1.641421 0.000000
4.000000 2.000000 0.000000
3.420000 1.420000 0.000000
3.580000 1.420000 0.000000
3.580000 1.580000 0.000000
3.420000 1.580000 0.000000
3.358579 1.358579 0.000000
3.641421 1.358579 0.000000
3.641421 1.641421 0.000000
3.358579 1.641421 0.000000
1.000000 3.000000 0.000000
0.000000 3.000000 0.000000
0.420000 2.420000 0.000000
0.580000 2.420000 0.000000
0.580000 2.580000 0.000000
0.420000 2.580000 0.000000
0.358579 2.358579 0.000000
0.641421 2.358579 0.000000
0.641421 2.641421 0.000000
0.358579 2.641421 0.000000
2.000000 3.000000 0.000000
1.420000 2.420000 0.000000
1.580000 2.420000 0.000000
1.580000 2.580000 0.000000
1.420000 2.580000 0.000000
1.358579 2.358579 0.000000
1.641421 2.358579 0.000000
1.641421 2.641421 0.000000
1.358579 2.641421 0.000000
3.000000 3.000000 0.000000
2.420000 2.420000 0.000000
2.580000 2.420000 0.000000
2.580000 2.580000 0.000000
2.420000 2.580000 0.000000
2.358579 2.358579 0.000000
2.641421 2.358579 0.000000
2.641421 2.641421 0.000000
2.358579 2.641421 0.000000
4.000000 3.000000 0.000000
3.420000 2.420000 0.000000
3.580000 2.420000 0.000000
3.580000 2.580000 0.000000
3.420000 2.580000 0.000000
3.358579 2.358579 0.000000
3.641421 2.358579 0.000000
3.641421 2.641421 0.000000
3.358579 2.641421 0.000000
1.000000 4.000000 0.000000
0.000000 4.000000 0.000000
0.420000 3.420000 0.000000
0.580000 3.420000 0.000000
0.580000 3.580000 0.000000
0.420000 3.580000 0.000000
0.358579 3.358579 0.000000
0.641421 3.358579 0.000000
0.641421 3.641421 0.000000
0.358579 3.641421 0.000000
2.000000 4.000000 0.000000
1.420000 3.420000 0.000000
1.580000 3.420000 0.000000
1.580000 3.580000 0.000000
1.420000 3.580000 0.000000
1.358579 3.358579 0.000000
1.641421 3.358579 0.000000
1.641421 3.641421 0.000000
1.358579 3.641421 0.000000
3.000000 4.000000 0.000000
2.420000 3.420000 0.000000
2.580000 3.420000 0.000000
2.580000 3.580000 0.000000
2.420000 3.580000 0.000000
2.358579 3.358579 0.000000
2.641421 3.358579 0.000000
2.641421 3.641421 0.000000
2.358579 3.641421 0.000000
4.000000 4.000000 0.000000
3.420000 3.420000 0.000000
3.580000 3.420000 0.000000
3.580000 3.580000 0.000000
3.420000 3.580000 0.000000
3.358579 3.358579 0.000000
3.641421 3.358579 0.000000
3.641421 3.641421 0.000000
3.358579 3.641421 0.000000
0.500000 0.000000 0.000000
0.250000 0.000000 0.000000
0.750000 0.000000 0.000000
1.000000 0.500000 0.000000
1.000000 0.250000 0.000000
1.000000 0.750000 0.000000
0.500000 1.000000 0.000000
0.750000 1.000000 0.000000
0.250000 1.000000 0.000000
0.000000 0.500000 0.000000
0.000000 0.750000 0.000000
0.000000 0.250000 0.000000
0.500000 0.420000 0.000000
0.460000 0.420000 0.000000
0.540000 0.420000 0.000000
0.580000 0.500000 0.000000
0.580000 0.460000 0.000000
0.580000 0.540000 0.000000
0.500000 0.580000 0.000000
0.540000 0.580000 0.000000
0.460000 0.580000 0.000000
0.420000 0.500000 0.000000
0.420000 0.540000 0.000000
0.420000 0.460000 0.000000
0.500000 0.300001 0.000000
0.423464 0.315225 0.000000
0.576536 0.315225 0.000000
0.699999 0.500000 0.000000
0.684775 0.423464 0.000000
0.684775 0.576536 0.000000
0.500000 0.699999 0.000000
0.576536 0.684775 0.000000
0.423464 0.684775 0.000000
0.300001 0.500000 0.000000
0.315225 0.576536 0.000000
0.315225 0.423464 0.000000
0.389290 0.389290 0.000000
0.404645 0.404645 0.000000
0.373934 0.373934 0.000000
0.610710 0.389290 0.000000
0.595355 0.404645 0.000000
0.626066 0.373934 0.000000
0.610710 0.610710 0.000000
0.595355 0.595355 0.000000
0.626066 0.626066 0.000000
0.389290 0.610710 0.000000
0.404645 0.595355 0.000000
0.373934 0.626066 0.000000
0.179290 0.179290 0.000000
0.268934 0.268934 0.000000
0.089645 0.089645 0.000000
0.820710 0.179290 0.000000
0.731066 0.268934 0.000000
0.910355 0.089645 0.000000
0.820710 0.820710 0.000000
0.731066 0.731066 0.000000
0.910355 0.910355 0.000000
0.179290 0.820710 0.000000
0.268934 0.731066 0.000000
0.089645 0.910355 0.000000
1.500000 0.000000 0.000000
1.250000 0.000000 0.000000
1.750000 0.000000 0.000000
2.000000 0.500000 0.000000
2.000000 0.250000 0.000000
2.000000 0.750000 0.000000
1.500000 1.000000 0.000000
1.750000 1.000000 0.000000
1.250000 1.000000 0.000000
1.500000 0.420000 0.000000
1.460000 0.420000 0.000000
1.540000 0.420000 0.000000
1.580000 0.500000 0.000000
1.580000 0.460000 0.000000
1.580000 0.540000 0.000000
1.500000 0.580000 0.000000
1.540000 0.580000 0.000000
1.460000 0.580000 0.000000
1.420000 0.500000 0.000000
1.420000 0.540000 0.000000
1.420000 0.460000 0.000000
1.500000 0.300001 0.000000
1.423464 0.315225 0.000000
1.576536 0.315225 0.000000
1.699999 0.500000 0.000000
1.684775 0.423464 0.000000
1.684775 0.576536 0.000000
1.500000 0.699999 0.000000
1.576536 0.684775 0.000000
1.423464 0.684775 0.000000
1.300001 0.500000 0.000000
1.315225 0.576536 0.000000
1.315225 0.423464 0.000000
1.389290 0.389290 0.000000
1.404645 0.404645 0.000000
1.373934 0.373934 0.000000
1.610710 0.389290 0.000000
1.595355 0.404645 0.000000
1.626066 0.373934 0.000000
1.610710 0.610710 0.000000
1.595355 0.595355 0.000000
1.626066 0.626066 0.000000
1.389290 0.610710 0.000000
1.404645 0.595355 0.000000
1.373934 0.626066 0.000000
1.179290 0.179290 0.000000
1.268934 0.268934 0.000000
1.089645 0.089645 0.000000
1.820710 0.179290 0.000000
1.731066 0.268934 0.000000
1.910355 0.089645 0.000000
1.820710 0.820710 0.000000
1.731066 0.731066 0.000000
1.910355 0.910355 0.000000
1.179290 0.820710 0.000000
1.268934 0.731066 0.000000
1.089645 0.910355 0.000000
2.500000 0.000000 0.000000
2.250000 0.000000 0.000000
2.750000 0.000000 0.000000
3.000000 0.500000 0.000000
3.000000 0.250000 0.000000
3.000000 0.750000 0.000000
2.500000 1.000000 0.000000
2.750000 1.000000 0.000000
2.250000 1.000000 0.000000
2.500000 0.420000 0.000000
2.460000 0.420000 0.000000
2.540000 0.420000 0.000000
2.580000 0.500000 0.000000
2.580000 0.460000 0.000000
2.580000 0.540000 0.000000
2.500000 0.580000 0.000000
2.540000 0.580000 0.000000
2.460000 0.580000 0.000000
2.420000 0.500000 0.000000
2.420000 0.540000 0.000000
2.420000 0.460000 0.000000
2.500000 0.300001 0.000000
2.423464 0.315225 0.000000
2.576536 0.315225 0.000000
2.699999 0.500000 0.000000
2.684775 0.423464 0.000000
2.684775 0.576536 0.000000
2.500000 0.699999 0.000000
2.576536 0.684775 0.000000
2.423464 0.684775 0.000000
2.300001 0.500000 0.000000
2.315225 0.576536 0.000000
2.315225 0.423464 0.000000
2.389289 0.389289 0.000000
2.404645 0.404645 0.000000
2.373934 0.373934 0.000000
2.610711 0.389289 0.000000
2.595355 0.404645 0.000000
2.626066 0.373934 0.000000
2.610711 0.610711 0.000000
2.595355 0.595355 0.000000
2.626066 0.626066 0.000000
2.389289 0.610711 0.000000
2.404645 0.595355 0.000000
2.373934 0.626066 0.000000
2.179290 0.179290 0.000000
2.268934 0.268934 0.000000
2.089645 0.089645 0.000000
2.820710 0.179290 0.000000
2.731066 0.268934 0.000000
2.910355 0.089645 0.000000
2.820710 0.820710 0.000000
2.731066 0.731066 0.000000
2.910355 0.910355 0.000000
2.179290 0.820710 0.000000
2.268934 0.731066 0.000000
2.089645 0.910355 0.000000
3.500000 0.000000 0.000000
3.250000 0.000000 0.000000
3.750000 0.000000 0.000000
4.000000 0.500000 0.000000
4.000000 0.250000 0.000000
4.000000 0.750000 0.000000
3.500000 1.000000 0.000000
3.750000 1.000000 0.000000
3.250000 1.000000 0.000000
3.500000 0.420000 0.000000
3.460000 0.420000 0.000000
3.540000 0.420000 0.000000
3.580000 0.500000 0.000000
3.580000 0.460000 0.000000
3.580000 0.540000 0.000000
3.500000 0.580000 0.000000
3.540000 0.580000 0.000000
3.460000 0.580000 0.000000
3.420000 0.500000 0.000000
3.420000 0.540000 0.000000
3.420000 0.460000 0.000000
3.500000 0.300001 0.000000
3.423464 0.315225 0.000000
3.576536 0.315225 0.000000
3.699999 0.500000 0.000000
3.684775 0.423464 0.000000
3.684775 0.576536 0.000000
3.500000 0.699999 0.000000
3.576536 0.684775 0.000000
3.423464 0.684775 0.000000
3.300001 0.500000 0.000000
3.315225 0.576536 0.000000
3.315225 0.423464 0.000000
3.389289 0.389289 0.000000
3.404645 0.404645 0.000000
3.373934 0.373934 0.000000
3.610711 0.389289 0.000000
3.595355 0.404645 0.000000
3.626066 0.373934 0.000000
3.610711 0.610711 0.000000
[...]
POINT_DATA 1761
VECTORS sol double
+0.000000 +0.000000 0
+0.000000 +0.000000 0
-0.222723 +0.378586 0
+0.000000 +0.000000 0
-0.160242 +0.272380 0
-0.193994 +0.325240 0
-0.242041 +0.411422 0
-0.200390 +0.345134 0
-0.124712 +0.211987 0
-0.177419 +0.294061 0
-0.264898 +0.450274 0
-0.188076 +0.327207 0
+0.000000 +0.000000 0
+0.210930 -0.433912 0
-0.042237 +0.013055 0
+0.017582 -0.093429 0
+0.028834 -0.126412 0
-0.046365 +0.008889 0
-0.059310 +0.051095 0
+0.033486 -0.113450 0
+0.062795 -0.188869 0
-0.076956 +0.063651 0
+0.000000 +0.000000 0
-0.075576 +0.235058 0
+0.123450 -0.196693 0
+0.094269 -0.120093 0
+0.113545 -0.147088 0
+0.152886 -0.247413 0
+0.115880 -0.193818 0
+0.071801 -0.076790 0
+0.098055 -0.107055 0
+0.173156 -0.296516 0
+0.000000 +0.000000 0
+0.000000 +0.000000 0
-0.057487 +0.192092 0
-0.054374 +0.169116 0
-0.076338 +0.224134 0
-0.082131 +0.255446 0
-0.046308 +0.166176 0
-0.042318 +0.131619 0
-0.077714 +0.219561 0
-0.089887 +0.279569 0
+0.104049 -0.101489 0
+0.000000 +0.000000 0
-0.125530 +0.272116 0
-0.145516 +0.317272 0
-0.080920 +0.214948 0
-0.072524 +0.186819 0
-0.129814 +0.270379 0
-0.172188 +0.359846 0
-0.053667 +0.173354 0
-0.046675 +0.135869 0
+0.000000 -0.000000 0
+0.050160 -0.085261 0
+0.103694 -0.199430 0
+0.105300 -0.178990 0
+0.070836 -0.097237 0
+0.015754 -0.026778 0
+0.121056 -0.245698 0
+0.111523 -0.189568 0
+0.064441 -0.069612 0
-0.104049 +0.101489 0
+0.078027 -0.174395 0
+0.017020 -0.052938 0
-0.018804 -0.009801 0
+0.035731 -0.111132 0
+0.114895 -0.239688 0
+0.005346 -0.016626 0
-0.051951 +0.043917 0
+0.037843 -0.117700 0
+0.000000 +0.000000 0
-0.178655 +0.349596 0
-0.151197 +0.297152 0
-0.142093 +0.254677 0
-0.170561 +0.302384 0
-0.182596 +0.369997 0
-0.135976 +0.276389 0
-0.120356 +0.207737 0
-0.170059 +0.286883 0
+0.075576 -0.235058 0
+0.000000 +0.000000 0
+0.142093 -0.254677 0
+0.170561 -0.302384 0
+0.178655 -0.349596 0
+0.151197 -0.297152 0
+0.120356 -0.207737 0
+0.170059 -0.286883 0
+0.182596 -0.369997 0
+0.135976 -0.276389 0
-0.210930 +0.433912 0
+0.018804 +0.009801 0
-0.035731 +0.111132 0
-0.078027 +0.174395 0
-0.017020 +0.052938 0
+0.051951 -0.043917 0
-0.037843 +0.117700 0
-0.114895 +0.239688 0
-0.005346 +0.016626 0
+0.222723 -0.378586 0
-0.105300 +0.178990 0
-0.070836 +0.097237 0
-0.050160 +0.085261 0
-0.103694 +0.199430 0
-0.111523 +0.189568 0
-0.064441 +0.069612 0
-0.015754 +0.026778 0
-0.121056 +0.245698 0
+0.000000 +0.000000 0
+0.080920 -0.214948 0
+0.072524 -0.186819 0
+0.125530 -0.272116 0
+0.145516 -0.317272 0
+0.053667 -0.173354 0
+0.046675 -0.135869 0
+0.129814 -0.270379 0
+0.172188 -0.359846 0
+0.000000 +0.000000 0
+0.000000 +0.000000 0
+0.076338 -0.224134 0
+0.082131 -0.255446 0
+0.057487 -0.192092 0
+0.054374 -0.169116 0
+0.077714 -0.219561 0
+0.089887 -0.279569 0
+0.046308 -0.166176 0
+0.042318 -0.131619 0
+0.000000 +0.000000 0
-0.113545 +0.147088 0
-0.152886 +0.247413 0
-0.123450 +0.196693 0
-0.094269 +0.120093 0
-0.098055 +0.107055 0
-0.173156 +0.296516 0
-0.115880 +0.193818 0
-0.071801 +0.076790 0
+0.000000 +0.000000 0
-0.028834 +0.126412 0
+0.046365 -0.008889 0
+0.042237 -0.013055 0
-0.017582 +0.093429 0
-0.062795 +0.188869 0
+0.076956 -0.063651 0
+0.059310 -0.051095 0
-0.033486 +0.113450 0
+0.000000 +0.000000 0
+0.242041 -0.411422 0
+0.200390 -0.345134 0
+0.160242 -0.272380 0
+0.193994 -0.325240 0
+0.264898 -0.450274 0
+0.188076 -0.327207 0
+0.124712 -0.211987 0
+0.177419 -0.294061 0
+0.000000 +0.000000 0
+0.000000 +0.000000 0
+0.000000 +0.000000 0
-0.200655 +0.309039 0
-0.114207 +0.172754 0
-0.237844 +0.379772 0
-0.246083 +0.450328 0
-0.272608 +0.487896 0
-0.144518 +0.267028 0
+0.000000 +0.000000 0
+0.000000 +0.000000 0
+0.000000 +0.000000 0
-0.179690 +0.303585 0
-0.170570 +0.289109 0
-0.187514 +0.315656 0
-0.220439 +0.371901 0
-0.207779 +0.349395 0
-0.231872 +0.392600 0
-0.224413 +0.384261 0
-0.234050 +0.399376 0
-0.213152 +0.366105 0
-0.182316 +0.311753 0
-0.191881 +0.329241 0
-0.171744 +0.292758 0
-0.135253 +0.226899 0
-0.126940 +0.214415 0
-0.152216 +0.253703 0
-0.232920 +0.386998 0
-0.205301 +0.339863 0
-0.253215 +0.424964 0
-0.245570 +0.426341 0
-0.260944 +0.449003 0
-0.218216 +0.380033 0
-0.139514 +0.240151 0
-0.159353 +0.275901 0
-0.128867 +0.220406 0
-0.142562 +0.242327 0
-0.151400 +0.257350 0
-0.133511 +0.226942 0
-0.186362 +0.310729 0
-0.190408 +0.318356 0
-0.182186 +0.302850 0
-0.253833 +0.431467 0
-0.248123 +0.421760 0
-0.259661 +0.441372 0
-0.194940 +0.337409 0
-0.197924 +0.341732 0
-0.191872 +0.332975 0
-0.035148 +0.059744 0
-0.076347 +0.129776 0
-0.009268 +0.015753 0
-0.095024 +0.151259 0
-0.140353 +0.228546 0
-0.047006 +0.073001 0
-0.281449 +0.478407 0
-0.281114 +0.477839 0
-0.260765 +0.443249 0
-0.109575 +0.196519 0
-0.154572 +0.272770 0
-0.056791 +0.103434 0
+0.000000 +0.000000 0
+0.000000 +0.000000 0
+0.000000 +0.000000 0
+0.148148 -0.304761 0
+0.080214 -0.165012 0
+0.193199 -0.397438 0
+0.028851 -0.115250 0
+0.145705 -0.330002 0
-0.107797 +0.148856 0
-0.011936 -0.041507 0
-0.027057 -0.014426 0
+0.002987 -0.067924 0
+0.022787 -0.110172 0
+0.020080 -0.101851 0
+0.025703 -0.118362 0
-0.008219 -0.060481 0
+0.010513 -0.094006 0
-0.027232 -0.026079 0
-0.045356 +0.011731 0
-0.046124 +0.010491 0
-0.044049 +0.012578 0
-0.011090 -0.028522 0
-0.033773 +0.010051 0
+0.010635 -0.068597 0
+0.069411 -0.189637 0
+0.053656 -0.155068 0
+0.073328 -0.202755 0
-0.001342 -0.076071 0
+0.036035 -0.142999 0
-0.042375 -0.000623 0
-0.096866 +0.107115 0
-0.095720 +0.100976 0
-0.081482 +0.085150 0
-0.051349 +0.032988 0
-0.047025 +0.023396 0
-0.055745 +0.042743 0
+0.026023 -0.104475 0
+0.021996 -0.099350 0
+0.030098 -0.109625 0
+0.045452 -0.157112 0
+0.037060 -0.141664 0
+0.054039 -0.172898 0
-0.061308 +0.035414 0
-0.053751 +0.021909 0
-0.069019 +0.049195 0
-0.061737 +0.082784 0
-0.068049 +0.079805 0
-0.038229 +0.054945 0
+0.041428 -0.097783 0
+0.043465 -0.116695 0
+0.026228 -0.057267 0
+0.156970 -0.351802 0
+0.111656 -0.274900 0
+0.190165 -0.404591 0
-0.164259 +0.237333 0
-0.121618 +0.149732 0
-0.197960 +0.314050 0
+0.000000 +0.000000 0
+0.000000 +0.000000 0
+0.000000 +0.000000 0
-0.008858 +0.121959 0
+0.000767 +0.060608 0
-0.035380 +0.182289 0
+0.132201 -0.216058 0
+0.026981 +0.017393 0
+0.201664 -0.384584 0
+0.110204 -0.160643 0
+0.117208 -0.179335 0
+0.102523 -0.140818 0
+0.105463 -0.135379 0
+0.100231 -0.128152 0
+0.109908 -0.141703 0
+0.134863 -0.200043 0
+0.124558 -0.174135 0
+0.144332 -0.224533 0
+0.139814 -0.224320 0
+0.146779 -0.236460 0
+0.132017 -0.211034 0
+0.083823 -0.121100 0
+0.097013 -0.152850 0
+0.076097 -0.097116 0
+0.073511 -0.059070 0
+0.070994 -0.063575 0
+0.081649 -0.072030 0
+0.144407 -0.218235 0
+0.119946 -0.158951 0
+0.163366 -0.267197 0
+0.156028 -0.274124 0
+0.169302 -0.296369 0
+0.136283 -0.235662 0
+0.120210 -0.196345 0
+0.122022 -0.196915 0
+0.118305 -0.195662 0
+0.082960 -0.098017 0
+0.088572 -0.108865 0
+0.077249 -0.086980 0
+0.106393 -0.128162 0
+0.110178 -0.137987 0
+0.102532 -0.118136 0
+0.163059 -0.271826 0
+0.158024 -0.259652 0
+0.168175 -0.284226 0
+0.064649 -0.120433 0
+0.093905 -0.165895 0
+0.032351 -0.063239 0
+0.020016 +0.003042 0
+0.043218 -0.028725 0
+0.005584 +0.012210 0
+0.021686 +0.055961 0
+0.064107 -0.031424 0
-0.025679 +0.146008 0
+0.210390 -0.403909 0
+0.195239 -0.356427 0
+0.214928 -0.428744 0
+0.000000 +0.000000 0
+0.000000 +0.000000 0
+0.000000 +0.000000 0
+0.000000 +0.000000 0
+0.000000 +0.000000 0
+0.000000 +0.000000 0
-0.142733 +0.349520 0
-0.088560 +0.212446 0
-0.137830 +0.356433 0
-0.057549 +0.184449 0
-0.057934 +0.189264 0
-0.056349 +0.177698 0
-0.065289 +0.197605 0
-0.059807 +0.183575 0
-0.070805 +0.211143 0
-0.081331 +0.244699 0
-0.079333 +0.235578 0
-0.082260 +0.251320 0
-0.069619 +0.224791 0
-0.075840 +0.240406 0
-0.063500 +0.208666 0
-0.040340 +0.134320 0
-0.042345 +0.146536 0
-0.040562 +0.130162 0
-0.052896 +0.155664 0
-0.046240 +0.139812 0
-0.063378 +0.182288 0
-0.099821 +0.284177 0
-0.090886 +0.255835 0
-0.098623 +0.290675 0
-0.062543 +0.220813 0
-0.075845 +0.251958 0
-0.052825 +0.191138 0
-0.052053 +0.179724 0
-0.054811 +0.186095 0
-0.049192 +0.173128 0
-0.048375 +0.150457 0
-0.051374 +0.159785 0
-0.045304 +0.140905 0
-0.077333 +0.222695 0
-0.076960 +0.223744 0
-0.077736 +0.221647 0
-0.086132 +0.267891 0
-0.084195 +0.261865 0
-0.088110 +0.274041 0
-0.013271 +0.071518 0
-0.029086 +0.120016 0
-0.003193 +0.030265 0
-0.011927 +0.037094 0
-0.025907 +0.080576 0
-0.003145 +0.009781 0
-0.056155 +0.144412 0
-0.070990 +0.191244 0
-0.032029 +0.079281 0
-0.095503 +0.297036 0
-0.095390 +0.296683 0
-0.088484 +0.275206 0
-0.065034 +0.176753 0
-0.156545 +0.300473 0
+0.028956 +0.033113 0
+0.073080 -0.071282 0
+0.095303 -0.092958 0
+0.039569 -0.038595 0
+0.000000 +0.000000 0
+0.000000 +0.000000 0
+0.000000 +0.000000 0
-0.138047 +0.300020 0
-0.132386 +0.287326 0
-0.142423 +0.310003 0
-0.113794 +0.267879 0
-0.129851 +0.293089 0
-0.097448 +0.241778 0
-0.078515 +0.204899 0
-0.080182 +0.210965 0
-0.075946 +0.196812 0
-0.099565 +0.231038 0
-0.086130 +0.209250 0
-0.112730 +0.252037 0
-0.178456 +0.360878 0
-0.157138 +0.320457 0
-0.183254 +0.373225 0
-0.112446 +0.269487 0
-0.145397 +0.319799 0
-0.079882 +0.217529 0
-0.032193 +0.126374 0
-0.037437 +0.141749 0
-0.036904 +0.126594 0
-0.078266 +0.180409 0
-0.061002 +0.154212 0
-0.100926 +0.218912 0
-0.128340 +0.272447 0
-0.127195 +0.272742 0
-0.129500 +0.272138 0
-0.158863 +0.338832 0
-0.152241 +0.328237 0
-0.165619 +0.349644 0
-0.067779 +0.195063 0
-0.074493 +0.205293 0
-0.060882 +0.184530 0
-0.059401 +0.161212 0
-0.065866 +0.173920 0
-0.052804 +0.148221 0
-0.093155 +0.180503 0
-0.118905 +0.237980 0
-0.052461 +0.099211 0
-0.223641 +0.422021 0
-0.202437 +0.401097 0
-0.229784 +0.413030 0
+0.036460 +0.023010 0
-0.009026 +0.100449 0
+0.074814 -0.045823 0
+0.002626 +0.022900 0
-0.017246 +0.072128 0
+0.008242 -0.001326 0
+0.148148 -0.304761 0
+0.193199 -0.397438 0
+0.080214 -0.165012 0
+0.073080 -0.071282 0
+0.039569 -0.038595 0
+0.095303 -0.092958 0
+0.078147 -0.144722 0
+0.064395 -0.115451 0
+0.091280 -0.172786 0
+0.105537 -0.190887 0
+0.104855 -0.195566 0
+0.105694 -0.185359 0
+0.089238 -0.140193 0
+0.097611 -0.160220 0
+0.080275 -0.119117 0
+0.061289 -0.092292 0
+0.066283 -0.095039 0
+0.055897 -0.089020 0
+0.065772 -0.141534 0
+0.035315 -0.076402 0
+0.097114 -0.202575 0
+0.130659 -0.249378 0
+0.131754 -0.259744 0
+0.121520 -0.221263 0
+0.091970 -0.129046 0
+0.100671 -0.156418 0
+0.081005 -0.101904 0
+0.023609 -0.010396 0
+0.043937 -0.037184 0
+0.012097 -0.004189 0
+0.033663 -0.057221 0
+0.042131 -0.071614 0
+0.025022 -0.042533 0
+0.112053 -0.222074 0
+0.107789 -0.210653 0
+0.116411 -0.233736 0
+0.109183 -0.185590 0
+0.107530 -0.182780 0
+0.110805 -0.188346 0
+0.067234 -0.082677 0
+0.068890 -0.089667 0
+0.065559 -0.075578 0
-0.106452 +0.180947 0
-0.042940 +0.072990 0
-0.166979 +0.283831 0
+0.173390 -0.367818 0
+0.147323 -0.309690 0
+0.194495 -0.408814 0
+0.079202 -0.134627 0
+0.102566 -0.174343 0
+0.043738 -0.074346 0
+0.069746 -0.045465 0
+0.063278 -0.048292 0
+0.083591 -0.063878 0
-0.144479 +0.254244 0
-0.116680 +0.261588 0
-0.142396 +0.200250 0
-0.073080 +0.071282 0
-0.095303 +0.092958 0
-0.039569 +0.038595 0
+0.048497 -0.115801 0
+0.063566 -0.145753 0
+0.032931 -0.084762 0
-0.001182 -0.031357 0
+0.007887 -0.042192 0
-0.010101 -0.020535 0
+0.009029 -0.061957 0
-0.004809 -0.036127 0
+0.022584 -0.087038 0
+0.057063 -0.143605 0
+0.046403 -0.127527 0
+0.067628 -0.159255 0
+0.077293 -0.152772 0
+0.102287 -0.207621 0
+0.042256 -0.083172 0
-0.046964 +0.058441 0
-0.026168 +0.033135 0
-0.054425 +0.058759 0
-0.019237 -0.020576 0
-0.038681 +0.014838 0
+0.006977 -0.065029 0
+0.094780 -0.214382 0
+0.068418 -0.169468 0
+0.110876 -0.239380 0
+0.096459 -0.206864 0
+0.087295 -0.190663 0
+0.105803 -0.223389 0
+0.011423 -0.035527 0
+0.014296 -0.044464 0
+0.008491 -0.026408 0
-0.035622 +0.017649 0
-0.027343 +0.004199 0
-0.044056 +0.031341 0
+0.037049 -0.115230 0
+0.036488 -0.113485 0
+0.037599 -0.116941 0
+0.193970 -0.387893 0
+0.159572 -0.321637 0
+0.210598 -0.424521 0
-0.036122 +0.112347 0
-0.014571 +0.045318 0
-0.056660 +0.176227 0
-0.111467 +0.131291 0
-0.088109 +0.099372 0
-0.116236 +0.131033 0
+0.026875 -0.083588 0
+0.034804 -0.108247 0
+0.014841 -0.046160 0
+0.000000 +0.000000 0
+0.000000 +0.000000 0
+0.000000 +0.000000 0
-0.073080 +0.071282 0
-0.039569 +0.038595 0
-0.095303 +0.092958 0
-0.167697 +0.328940 0
-0.173887 +0.340693 0
-0.160099 +0.314358 0
-0.148039 +0.278320 0
-0.149956 +0.288347 0
-0.145421 +0.267082 0
-0.158724 +0.283135 0
-0.150974 +0.269994 0
-0.165265 +0.293955 0
-0.176265 +0.328813 0
-0.173832 +0.316283 0
-0.177860 +0.339917 0
-0.166935 +0.349640 0
-0.176313 +0.366454 0
-0.151964 +0.315411 0
-0.114144 +0.215405 0
-0.121804 +0.239276 0
-0.114104 +0.206007 0
-0.143399 +0.234845 0
-0.130598 +0.217983 0
-0.157124 +0.258491 0
-0.183018 +0.338324 0
-0.178244 +0.313472 0
-0.183662 +0.357123 0
-0.181103 +0.360526 0
-0.180076 +0.355387 0
-0.182151 +0.365769 0
-0.143933 +0.287657 0
-0.147689 +0.292733 0
-0.140108 +0.282484 0
-0.131536 +0.231572 0
-0.136908 +0.243215 0
-0.126010 +0.219626 0
-0.170635 +0.295389 0
-0.170726 +0.299158 0
-0.170497 +0.291448 0
-0.153311 +0.353422 0
-0.174067 +0.373425 0
-0.119465 +0.305425 0
-0.072575 +0.160428 0
-0.106657 +0.226033 0
-0.036358 +0.083504 0
-0.049700 +0.073939 0
-0.085009 +0.138224 0
-0.020654 +0.026860 0
-0.144754 +0.199766 0
-0.160414 +0.248113 0
-0.125013 +0.149089 0
+0.144479 -0.254244 0
+0.142396 -0.200250 0
+0.116680 -0.261588 0
+0.142733 -0.349520 0
+0.137830 -0.356433 0
+0.088560 -0.212446 0
+0.000000 +0.000000 0
+0.000000 +0.000000 0
+0.000000 +0.000000 0
+0.158724 -0.283135 0
+0.150974 -0.269994 0
+0.165265 -0.293955 0
+0.176265 -0.328813 0
+0.173832 -0.316283 0
+0.177860 -0.339917 0
+0.167697 -0.328940 0
+0.173887 -0.340693 0
+0.160099 -0.314358 0
+0.148039 -0.278320 0
+0.149956 -0.288347 0
+0.145421 -0.267082 0
+0.143399 -0.234845 0
+0.130598 -0.217983 0
+0.157124 -0.258491 0
+0.183018 -0.338324 0
+0.178244 -0.313472 0
+0.183662 -0.357123 0
+0.166935 -0.349640 0
+0.176313 -0.366454 0
+0.151964 -0.315411 0
+0.114144 -0.215405 0
+0.121804 -0.239276 0
+0.114104 -0.206007 0
+0.131536 -0.231572 0
+0.136908 -0.243215 0
+0.126010 -0.219626 0
+0.170635 -0.295389 0
+0.170726 -0.299158 0
+0.170497 -0.291448 0
+0.181103 -0.360526 0
+0.180076 -0.355387 0
+0.182151 -0.365769 0
+0.143933 -0.287657 0
+0.147689 -0.292733 0
+0.140108 -0.282484 0
+0.049700 -0.073939 0
+0.085009 -0.138224 0
+0.020654 -0.026860 0
+0.144754 -0.199766 0
+0.160414 -0.248113 0
+0.125013 -0.149089 0
+0.153311 -0.353422 0
+0.174067 -0.373425 0
+0.119465 -0.305425 0
+0.072575 -0.160428 0
+0.106657 -0.226033 0
+0.036358 -0.083504 0
-0.148148 +0.304761 0
-0.080214 +0.165012 0
-0.193199 +0.397438 0
-0.132201 +0.216058 0
-0.201664 +0.384584 0
-0.026981 -0.017393 0
-0.009029 +0.061957 0
+0.004809 +0.036127 0
-0.022584 +0.087038 0
-0.057063 +0.143605 0
-0.046403 +0.127527 0
-0.067628 +0.159255 0
-0.048497 +0.115801 0
-0.063566 +0.145753 0
-0.032931 +0.084762 0
+0.001182 +0.031357 0
-0.007887 +0.042192 0
+0.010101 +0.020535 0
+0.019237 +0.020576 0
+0.038681 -0.014838 0
-0.006977 +0.065029 0
-0.094780 +0.214382 0
-0.068418 +0.169468 0
-0.110876 +0.239380 0
-0.077293 +0.152772 0
-0.102287 +0.207621 0
-0.042256 +0.083172 0
+0.046964 -0.058441 0
+0.026168 -0.033135 0
+0.054425 -0.058759 0
+0.035622 -0.017649 0
+0.027343 -0.004199 0
+0.044056 -0.031341 0
-0.037049 +0.115230 0
-0.036488 +0.113485 0
-0.037599 +0.116941 0
-0.096459 +0.206864 0
-0.087295 +0.190663 0
-0.105803 +0.223389 0
-0.011423 +0.035527 0
-0.014296 +0.044464 0
-0.008491 +0.026408 0
+0.111467 -0.131291 0
+0.088109 -0.099372 0
+0.116236 -0.131033 0
-0.026875 +0.083588 0
-0.034804 +0.108247 0
-0.014841 +0.046160 0
-0.193970 +0.387893 0
-0.159572 +0.321637 0
-0.210598 +0.424521 0
+0.036122 -0.112347 0
+0.014571 -0.045318 0
+0.056660 -0.176227 0
+0.065034 -0.176753 0
-0.028956 -0.033113 0
+0.156545 -0.300473 0
-0.028851 +0.115250 0
+0.107797 -0.148856 0
-0.145705 +0.330002 0
-0.089238 +0.140193 0
-0.097611 +0.160220 0
-0.080275 +0.119117 0
-0.061289 +0.092292 0
-0.066283 +0.095039 0
-0.055897 +0.089020 0
-0.078147 +0.144722 0
-0.064395 +0.115451 0
-0.091280 +0.172786 0
-0.105537 +0.190887 0
-0.104855 +0.195566 0
-0.105694 +0.185359 0
-0.091970 +0.129046 0
-0.100671 +0.156418 0
-0.081005 +0.101904 0
-0.023609 +0.010396 0
-0.043937 +0.037184 0
-0.012097 +0.004189 0
-0.065772 +0.141534 0
-0.035315 +0.076402 0
-0.097114 +0.202575 0
-0.130659 +0.249378 0
-0.131754 +0.259744 0
-0.121520 +0.221263 0
-0.109183 +0.185590 0
-0.107530 +0.182780 0
-0.110805 +0.188346 0
-0.067234 +0.082677 0
-0.068890 +0.089667 0
-0.065559 +0.075578 0
-0.033663 +0.057221 0
-0.042131 +0.071614 0
-0.025022 +0.042533 0
-0.112053 +0.222074 0
-0.107789 +0.210653 0
-0.116411 +0.233736 0
-0.079202 +0.134627 0
-0.102566 +0.174343 0
-0.043738 +0.074346 0
-0.069746 +0.045465 0
-0.063278 +0.048292 0
-0.083591 +0.063878 0
+0.106452 -0.180947 0
+0.042940 -0.072990 0
+0.166979 -0.283831 0
-0.173390 +0.367818 0
-0.147323 +0.309690 0
-0.194495 +0.408814 0
+0.000000 +0.000000 0
+0.000000 +0.000000 0
+0.000000 +0.000000 0
+0.246083 -0.450328 0
+0.144518 -0.267028 0
+0.272608 -0.487896 0
+0.078515 -0.204899 0
+0.080182 -0.210965 0
+0.075946 -0.196812 0
+0.099565 -0.231038 0
+0.086130 -0.209250 0
+0.112730 -0.252037 0
+0.138047 -0.300020 0
+0.132386 -0.287326 0
+0.142423 -0.310003 0
+0.113794 -0.267879 0
+0.129851 -0.293089 0
+0.097448 -0.241778 0
+0.032193 -0.126374 0
+0.037437 -0.141749 0
+0.036904 -0.126594 0
+0.078266 -0.180409 0
+0.061002 -0.154212 0
+0.100926 -0.218912 0
+0.178456 -0.360878 0
+0.157138 -0.320457 0
+0.183254 -0.373225 0
+0.112446 -0.269487 0
+0.145397 -0.319799 0
+0.079882 -0.217529 0
+0.067779 -0.195063 0
+0.074493 -0.205293 0
+0.060882 -0.184530 0
+0.059401 -0.161212 0
+0.065866 -0.173920 0
+0.052804 -0.148221 0
+0.128340 -0.272447 0
+0.127195 -0.272742 0
+0.129500 -0.272138 0
+0.158863 -0.338832 0
+0.152241 -0.328237 0
+0.165619 -0.349644 0
-0.036460 -0.023010 0
+0.009026 -0.100449 0
-0.074814 +0.045823 0
-0.002626 -0.022900 0
+0.017246 -0.072128 0
-0.008242 +0.001326 0
+0.093155 -0.180503 0
+0.118905 -0.237980 0
+0.052461 -0.099211 0
+0.223641 -0.422021 0
+0.202437 -0.401097 0
+0.229784 -0.413030 0
+0.008858 -0.121959 0
+0.035380 -0.182289 0
-0.000767 -0.060608 0
+0.000000 +0.000000 0
+0.000000 +0.000000 0
+0.000000 +0.000000 0
+0.000000 +0.000000 0
+0.000000 +0.000000 0
+0.000000 +0.000000 0
+0.081331 -0.244699 0
+0.079333 -0.235578 0
+0.082260 -0.251320 0
+0.069619 -0.224791 0
+0.075840 -0.240406 0
+0.063500 -0.208666 0
+0.057549 -0.184449 0
+0.057934 -0.189264 0
+0.056349 -0.177698 0
+0.065289 -0.197605 0
+0.059807 -0.183575 0
+0.070805 -0.211143 0
+0.099821 -0.284177 0
+0.090886 -0.255835 0
+0.098623 -0.290675 0
+0.062543 -0.220813 0
+0.075845 -0.251958 0
+0.052825 -0.191138 0
+0.040340 -0.134320 0
+0.042345 -0.146536 0
+0.040562 -0.130162 0
+0.052896 -0.155664 0
+0.046240 -0.139812 0
+0.063378 -0.182288 0
+0.077333 -0.222695 0
+0.076960 -0.223744 0
+0.077736 -0.221647 0
+0.086132 -0.267891 0
+0.084195 -0.261865 0
+0.088110 -0.274041 0
+0.052053 -0.179724 0
+0.054811 -0.186095 0
+0.049192 -0.173128 0
+0.048375 -0.150457 0
+0.051374 -0.159785 0
+0.045304 -0.140905 0
+0.056155 -0.144412 0
+0.070990 -0.191244 0
+0.032029 -0.079281 0
+0.095503 -0.297036 0
+0.095390 -0.296683 0
+0.088484 -0.275206 0
+0.013271 -0.071518 0
+0.029086 -0.120016 0
+0.003193 -0.030265 0
+0.011927 -0.037094 0
+0.025907 -0.080576 0
+0.003145 -0.009781 0
-0.148148 +0.304761 0
-0.193199 +0.397438 0
-0.080214 +0.165012 0
+0.000000 +0.000000 0
+0.000000 +0.000000 0
+0.000000 +0.000000 0
-0.134863 +0.200043 0
-0.124558 +0.174135 0
-0.144332 +0.224533 0
-0.139814 +0.224320 0
-0.146779 +0.236460 0
-0.132017 +0.211034 0
-0.110204 +0.160643 0
-0.117208 +0.179335 0
-0.102523 +0.140818 0
-0.105463 +0.135379 0
-0.100231 +0.128152 0
-0.109908 +0.141703 0
-0.144407 +0.218235 0
-0.119946 +0.158951 0
-0.163366 +0.267197 0
-0.156028 +0.274124 0
-0.169302 +0.296369 0
-0.136283 +0.235662 0
-0.083823 +0.121100 0
-0.097013 +0.152850 0
-0.076097 +0.097116 0
-0.073511 +0.059070 0