# vtk DataFile Version 2.0
MyTitle
ASCII
DATASET UNSTRUCTURED_GRID
POINTS 1761 double
0.000000 0.000000 0.000000
1.000000 0.000000 0.000000
1.000000 1.000000 0.000000
0.000000 1.000000 0.000000
0.420000 0.420000 0.000000
0.580000 0.420000 0.000000
0.580000 0.580000 0.000000
0.420000 0.580000 0.000000
0.358579 0.358579 0.000000
0.641421 0.358579 0.000000
0.641421 0.641421 0.000000
0.358579 0.641421 0.000000
2.000000 0.000000 0.000000
2.000000 1.000000 0.000000
1.420000 0.420000 0.000000
1.580000 0.420000 0.000000
1.580000 0.580000 0.000000
1.420000 0.580000 0.000000
1.358579 0.358579 0.000000
1.641421 0.358579 0.000000
1.641421 0.641421 0.000000
1.358579 0.641421 0.000000
3.000000 0.000000 0.000000
3.000000 1.000000 0.000000
2.420000 0.420000 0.000000
2.580000 0.420000 0.000000
2.580000 0.580000 0.000000
2.420000 0.580000 0.000000
2.358579 0.358579 0.000000
2.641421 0.358579 0.000000
2.641421 0.641421 0.000000
2.358579 0.641421 0.000000
4.000000 0.000000 0.000000
4.000000 1.000000 0.000000
3.420000 0.420000 0.000000
3.580000 0.420000 0.000000
3.580000 0.580000 0.000000
3.420000 0.580000 0.000000
3.358579 0.358579 0.000000
3.641421 0.358579 0.000000
3.641421 0.641421 0.000000
3.358579 0.641421 0.000000
1.000000 2.000000 0.000000
0.000000 2.000000 0.000000
0.420000 1.420000 0.000000
0.580000 1.420000 0.000000
0.580000 1.580000 0.000000
0.420000 1.580000 0.000000
0.358579 1.358579 0.000000
0.641421 1.358579 0.000000
0.641421 1.641421 0.000000
0.358579 1.641421 0.000000
2.000000 2.000000 0.000000
1.420000 1.420000 0.000000
1.580000 1.420000 0.000000
1.580000 1.580000 0.000000
1.420000 1.580000 0.000000
1.358579 1.358579 0.000000
1.641421 1.358579 0.000000
1.641421 1.641421 0.000000
1.358579 1.641421 0.000000
3.000000 2.000000 0.000000
2.420000 1.420000 0.000000
2.580000 1.420000 0.000000
2.580000 1.580000 0.000000
2.420000 1.580000 0.000000
2.358579 1.358579 0.000000
2.641421 1.358579 0.000000
2.641421 1.641421 0.000000
2.358579 1.641421 0.000000
4.000000 2.000000 0.000000
3.420000 1.420000 0.000000
3.580000 1.420000 0.000000
3.580000 1.580000 0.000000
3.420000 1.580000 0.000000
3.358579 1.358579 0.000000
3.641421 1.358579 0.000000
3.641421 1.641421 0.000000
3.358579 1.641421 0.000000
1.000000 3.000000 0.000000
0.000000 3.000000 0.000000
0.420000 2.420000 0.000000
0.580000 2.420000 0.000000
0.580000 2.580000 0.000000
0.420000 2.580000 0.000000
0.358579 2.358579 0.000000
0.641421 2.358579 0.000000
0.641421 2.641421 0.000000
0.358579 2.641421 0.000000
2.000000 3.000000 0.000000
1.420000 2.420000 0.000000
1.580000 2.420000 0.000000
1.580000 2.580000 0.000000
1.420000 2.580000 0.000000
1.358579 2.358579 0.000000
1.641421 2.358579 0.000000
1.641421 2.641421 0.000000
1.358579 2.641421 0.000000
3.000000 3.000000 0.000000
2.420000 2.420000 0.000000
2.580000 2.420000 0.000000
2.580000 2.580000 0.000000
2.420000 2.580000 0.000000
2.358579 2.358579 0.000000
2.641421 2.358579 0.000000
2.641421 2.641421 0.000000
2.358579 2.641421 0.000000
4.000000 3.000000 0.000000
3.420000 2.420000 0.000000
3.580000 2.420000 0.000000
3.580000 2.580000 0.000000
3.420000 2.580000 0.000000
3.358579 2.358579 0.000000
3.641421 2.358579 0.000000
3.641421 2.641421 0.000000
3.358579 2.641421 0.000000
1.000000 4.000000 0.000000
0.000000 4.000000 0.000000
0.420000 3.420000 0.000000
0.580000 3.420000 0.000000
0.580000 3.580000 0.000000
0.420000 3.580000 0.000000
0.358579 3.358579 0.000000
0.641421 3.358579 0.000000
0.641421 3.641421 0.000000
0.358579 3.641421 0.000000
2.000000 4.000000 0.000000
1.420000 3.420000 0.000000
1.580000 3.420000 0.000000
1.580000 3.580000 0.000000
1.420000 3.580000 0.000000
1.358579 3.358579 0.000000
1.641421 3.358579 0.000000
1.641421 3.641421 0.000000
1.358579 3.641421 0.000000
3.000000 4.000000 0.000000
2.420000 3.420000 0.000000
2.580000 3.420000 0.000000
2.580000 3.580000 0.000000
2.420000 3.580000 0.000000
2.358579 3.358579 0.000000
2.641421 3.358579 0.000000
2.641421 3.641421 0.000000
2.358579 3.641421 0.000000
4.000000 4.000000 0.000000
3.420000 3.420000 0.000000
3.580000 3.420000 0.000000
3.580000 3.580000 0.000000
3.420000 3.580000 0.000000
3.358579 3.358579 0.000000
3.641421 3.358579 0.000000
3.641421 3.641421 0.000000
3.358579 3.641421 0.000000
0.500000 0.000000 0.000000
0.250000 0.000000 0.000000
0.750000 0.000000 0.000000
1.000000 0.500000 0.000000
1.000000 0.250000 0.000000
1.000000 0.750000 0.000000
0.500000 1.000000 0.000000
0.750000 1.000000 0.000000
0.250000 1.000000 0.000000
0.000000 0.500000 0.000000
0.000000 0.750000 0.000000
0.000000 0.250000 0.000000
0.500000 0.420000 0.000000
0.460000 0.420000 0.000000
0.540000 0.420000 0.000000
0.580000 0.500000 0.000000
0.580000 0.460000 0.000000
0.580000 0.540000 0.000000
0.500000 0.580000 0.000000
0.540000 0.580000 0.000000
0.460000 0.580000 0.000000
0.420000 0.500000 0.000000
0.420000 0.540000 0.000000
0.420000 0.460000 0.000000
0.500000 0.300001 0.000000
0.423464 0.315225 0.000000
0.576536 0.315225 0.000000
0.699999 0.500000 0.000000
0.684775 0.423464 0.000000
0.684775 0.576536 0.000000
0.500000 0.699999 0.000000
0.576536 0.684775 0.000000
0.423464 0.684775 0.000000
0.300001 0.500000 0.000000
0.315225 0.576536 0.000000
0.315225 0.423464 0.000000
0.389290 0.389290 0.000000
0.404645 0.404645 0.000000
0.373934 0.373934 0.000000
0.610710 0.389290 0.000000
0.595355 0.404645 0.000000
0.626066 0.373934 0.000000
0.610710 0.610710 0.000000
0.595355 0.595355 0.000000
0.626066 0.626066 0.000000
0.389290 0.610710 0.000000
0.404645 0.595355 0.000000
0.373934 0.626066 0.000000
0.179290 0.179290 0.000000
0.268934 0.268934 0.000000
0.089645 0.089645 0.000000
0.820710 0.179290 0.000000
0.731066 0.268934 0.000000
0.910355 0.089645 0.000000
0.820710 0.820710 0.000000
0.731066 0.731066 0.000000
0.910355 0.910355 0.000000
0.179290 0.820710 0.000000
0.268934 0.731066 0.000000
0.089645 0.910355 0.000000
1.500000 0.000000 0.000000
1.250000 0.000000 0.000000
1.750000 0.000000 0.000000
2.000000 0.500000 0.000000
2.000000 0.250000 0.000000
2.000000 0.750000 0.000000
1.500000 1.000000 0.000000
1.750000 1.000000 0.000000
1.250000 1.000000 0.000000
1.500000 0.420000 0.000000
1.460000 0.420000 0.000000
1.540000 0.420000 0.000000
1.580000 0.500000 0.000000
1.580000 0.460000 0.000000
1.580000 0.540000 0.000000
1.500000 0.580000 0.000000
1.540000 0.580000 0.000000
1.460000 0.580000 0.000000
1.420000 0.500000 0.000000
1.420000 0.540000 0.000000
1.420000 0.460000 0.000000
1.500000 0.300001 0.000000
1.423464 0.315225 0.000000
1.576536 0.315225 0.000000
1.699999 0.500000 0.000000
1.684775 0.423464 0.000000
1.684775 0.576536 0.000000
1.500000 0.699999 0.000000
1.576536 0.684775 0.000000
1.423464 0.684775 0.000000
1.300001 0.500000 0.000000
1.315225 0.576536 0.000000
1.315225 0.423464 0.000000
1.389290 0.389290 0.000000
1.404645 0.404645 0.000000
1.373934 0.373934 0.000000
1.610710 0.389290 0.000000
1.595355 0.404645 0.000000
1.626066 0.373934 0.000000
1.610710 0.610710 0.000000
1.595355 0.595355 0.000000
1.626066 0.626066 0.000000
1.389290 0.610710 0.000000
1.404645 0.595355 0.000000
1.373934 0.626066 0.000000
1.179290 0.179290 0.000000
1.268934 0.268934 0.000000
1.089645 0.089645 0.000000
1.820710 0.179290 0.000000
1.731066 0.268934 0.000000
1.910355 0.089645 0.000000
1.820710 0.820710 0.000000
1.731066 0.731066 0.000000
1.910355 0.910355 0.000000
1.179290 0.820710 0.000000
1.268934 0.731066 0.000000
1.089645 0.910355 0.000000
2.500000 0.000000 0.000000
2.250000 0.000000 0.000000
2.750000 0.000000 0.000000
3.000000 0.500000 0.000000
3.000000 0.250000 0.000000
3.000000 0.750000 0.000000
2.500000 1.000000 0.000000
2.750000 1.000000 0.000000
2.250000 1.000000 0.000000
2.500000 0.420000 0.000000
2.460000 0.420000 0.000000
2.540000 0.420000 0.000000
2.580000 0.500000 0.000000
2.580000 0.460000 0.000000
2.580000 0.540000 0.000000
2.500000 0.580000 0.000000
2.540000 0.580000 0.000000
2.460000 0.580000 0.000000
2.420000 0.500000 0.000000
2.420000 0.540000 0.000000
2.420000 0.460000 0.000000
2.500000 0.300001 0.000000
2.423464 0.315225 0.000000
2.576536 0.315225 0.000000
2.699999 0.500000 0.000000
2.684775 0.423464 0.000000
2.684775 0.576536 0.000000
2.500000 0.699999 0.000000
2.576536 0.684775 0.000000
2.423464 0.684775 0.000000
2.300001 0.500000 0.000000
2.315225 0.576536 0.000000
2.315225 0.423464 0.000000
2.389289 0.389289 0.000000
2.404645 0.404645 0.000000
2.373934 0.373934 0.000000
2.610711 0.389289 0.000000
2.595355 0.404645 0.000000
2.626066 0.373934 0.000000
2.610711 0.610711 0.000000
2.595355 0.595355 0.000000
2.626066 0.626066 0.000000
2.389289 0.610711 0.000000
2.404645 0.595355 0.000000
2.373934 0.626066 0.000000
2.179290 0.179290 0.000000
2.268934 0.268934 0.000000
2.089645 0.089645 0.000000
2.820710 0.179290 0.000000
2.731066 0.268934 0.000000
2.910355 0.089645 0.000000
2.820710 0.820710 0.000000
2.731066 0.731066 0.000000
2.910355 0.910355 0.000000
2.179290 0.820710 0.000000
2.268934 0.731066 0.000000
2.089645 0.910355 0.000000
3.500000 0.000000 0.000000
3.250000 0.000000 0.000000
3.750000 0.000000 0.000000
4.000000 0.500000 0.000000
4.000000 0.250000 0.000000
4.000000 0.750000 0.000000
3.500000 1.000000 0.000000
3.750000 1.000000 0.000000
3.250000 1.000000 0.000000
3.500000 0.420000 0.000000
3.460000 0.420000 0.000000
3.540000 0.420000 0.000000
3.580000 0.500000 0.000000
3.580000 0.460000 0.000000
3.580000 0.540000 0.000000
3.500000 0.580000 0.000000
3.540000 0.580000 0.000000
3.460000 0.580000 0.000000
3.420000 0.500000 0.000000
3.420000 0.540000 0.000000
3.420000 0.460000 0.000000
3.500000 0.300001 0.000000
3.423464 0.315225 0.000000
3.576536 0.315225 0.000000
3.699999 0.500000 0.000000
3.684775 0.423464 0.000000
3.684775 0.576536 0.000000
3.500000 0.699999 0.000000
3.576536 0.684775 0.000000
3.423464 0.684775 0.000000
3.300001 0.500000 0.000000
3.315225 0.576536 0.000000
3.315225 0.423464 0.000000
3.389289 0.389289 0.000000
3.404645 0.404645 0.000000
3.373934 0.373934 0.000000
3.610711 0.389289 0.000000
3.595355 0.404645 0.000000
3.626066 0.373934 0.000000
3.610711 0.610711 0.000000
[...]
POINT_DATA 1761
VECTORS sol double
+0.000000 +0.000000 0
+0.000000 +0.000000 0
-0.088348 +0.114438 0
+0.000000 +0.000000 0
-0.063563 +0.082334 0
-0.098032 +0.106292 0
-0.096010 +0.124363 0
-0.058408 +0.096347 0
-0.049470 +0.064079 0
-0.105500 +0.102182 0
-0.105077 +0.136108 0
-0.039481 +0.085613 0
+0.000000 +0.000000 0
-0.268580 +0.002163 0
-0.291267 +0.107848 0
-0.289989 +0.084158 0
-0.350283 +0.098698 0
-0.345168 +0.126370 0
-0.255889 +0.103393 0
-0.250907 +0.065701 0
-0.358919 +0.088186 0
-0.344387 +0.138035 0
+0.000000 +0.000000 0
+0.468178 -0.117497 0
+0.110411 -0.082711 0
+0.225013 -0.107314 0
+0.259626 -0.125681 0
+0.118895 -0.096834 0
+0.060716 -0.064169 0
+0.239985 -0.103265 0
+0.317521 -0.137819 0
+0.058478 -0.085766 0
+0.000000 +0.000000 0
+0.000000 +0.000000 0
+0.418247 -0.108871 0
+0.336838 -0.084535 0
+0.410770 -0.099185 0
+0.508784 -0.127688 0
+0.390375 -0.104476 0
+0.262153 -0.065792 0
+0.377917 -0.088339 0
+0.556831 -0.139746 0
+0.393523 -0.164003 0
+0.000000 +0.000000 0
+0.224718 -0.021647 0
+0.269055 -0.027779 0
+0.329622 -0.071936 0
+0.268196 -0.055928 0
+0.180869 -0.006219 0
+0.245559 -0.010022 0
+0.362540 -0.092876 0
+0.245675 -0.058924 0
+0.000000 -0.000000 0
+0.019897 -0.025773 0
-0.067157 -0.019296 0
+0.041769 -0.054104 0
+0.136388 -0.070379 0
+0.006249 -0.008094 0
-0.138569 -0.003646 0
+0.044238 -0.057302 0
+0.212150 -0.091665 0
-0.393523 +0.164003 0
-0.164231 +0.021160 0
-0.105438 +0.026462 0
-0.202641 +0.070913 0
-0.221347 +0.055551 0
-0.161872 +0.006066 0
-0.033115 +0.008311 0
-0.228055 +0.091793 0
-0.234429 +0.058834 0
+0.000000 +0.000000 0
+0.143719 +0.024455 0
+0.127644 +0.018809 0
+0.005079 +0.053727 0
-0.009407 +0.069357 0
+0.206195 +0.006383 0
+0.157566 +0.003493 0
-0.032992 +0.057211 0
-0.077665 +0.090582 0
-0.468178 +0.117497 0
+0.000000 +0.000000 0
-0.005079 -0.053727 0
+0.009407 -0.069357 0
-0.143719 -0.024455 0
-0.127644 -0.018809 0
+0.032992 -0.057211 0
+0.077665 -0.090582 0
-0.206195 -0.006383 0
-0.157566 -0.003493 0
+0.268580 -0.002163 0
+0.202641 -0.070913 0
+0.221347 -0.055551 0
+0.164231 -0.021160 0
+0.105438 -0.026462 0
+0.228055 -0.091793 0
+0.234429 -0.058834 0
+0.161872 -0.006066 0
+0.033115 -0.008311 0
+0.088348 -0.114438 0
-0.041769 +0.054104 0
-0.136388 +0.070379 0
-0.019897 +0.025773 0
+0.067157 +0.019296 0
-0.044238 +0.057302 0
-0.212150 +0.091665 0
-0.006249 +0.008094 0
+0.138569 +0.003646 0
+0.000000 +0.000000 0
-0.329622 +0.071936 0
-0.268196 +0.055928 0
-0.224718 +0.021647 0
-0.269055 +0.027779 0
-0.362540 +0.092876 0
-0.245675 +0.058924 0
-0.180869 +0.006219 0
-0.245559 +0.010022 0
+0.000000 +0.000000 0
+0.000000 +0.000000 0
-0.410770 +0.099185 0
-0.508784 +0.127688 0
-0.418247 +0.108871 0
-0.336838 +0.084535 0
-0.377917 +0.088339 0
-0.556831 +0.139746 0
-0.390375 +0.104476 0
-0.262153 +0.065792 0
+0.000000 +0.000000 0
-0.259626 +0.125681 0
-0.118895 +0.096834 0
-0.110411 +0.082711 0
-0.225013 +0.107314 0
-0.317521 +0.137819 0
-0.058478 +0.085766 0
-0.060716 +0.064169 0
-0.239985 +0.103265 0
+0.000000 +0.000000 0
+0.350283 -0.098698 0
+0.345168 -0.126370 0
+0.291267 -0.107848 0
+0.289989 -0.084158 0
+0.358919 -0.088186 0
+0.344387 -0.138035 0
+0.255889 -0.103393 0
+0.250907 -0.065701 0
+0.000000 +0.000000 0
+0.096010 -0.124363 0
+0.058408 -0.096347 0
+0.063563 -0.082334 0
+0.098032 -0.106292 0
+0.105077 -0.136108 0
+0.039481 -0.085613 0
+0.049470 -0.064079 0
+0.105500 -0.102182 0
+0.000000 +0.000000 0
+0.000000 +0.000000 0
+0.000000 +0.000000 0
-0.229310 +0.150082 0
-0.145199 +0.090030 0
-0.208918 +0.158161 0
+0.052103 +0.079457 0
+0.006437 +0.104115 0
+0.042571 +0.042906 0
+0.000000 +0.000000 0
+0.000000 +0.000000 0
+0.000000 +0.000000 0
-0.079933 +0.095043 0
-0.071527 +0.088854 0
-0.088776 +0.100864 0
-0.100539 +0.117374 0
-0.100126 +0.112316 0
-0.099157 +0.121392 0
-0.075921 +0.111196 0
-0.085660 +0.118004 0
-0.066845 +0.103963 0
-0.063664 +0.090960 0
-0.061719 +0.094074 0
-0.064259 +0.087030 0
-0.067693 +0.073901 0
-0.056702 +0.067216 0
-0.083901 +0.085591 0
-0.134081 +0.132760 0
-0.124002 +0.118844 0
-0.125915 +0.138098 0
-0.055721 +0.113094 0
-0.078036 +0.126082 0
-0.043994 +0.098764 0
-0.041299 +0.067277 0
-0.039689 +0.074496 0
-0.044768 +0.064221 0
-0.056550 +0.073250 0
-0.060056 +0.077791 0
-0.052960 +0.068599 0
-0.102195 +0.104627 0
-0.100299 +0.105607 0
-0.104189 +0.103627 0
-0.100688 +0.130423 0
-0.098423 +0.127488 0
-0.102999 +0.133417 0
-0.049055 +0.091290 0
-0.053740 +0.093922 0
-0.044188 +0.088569 0
-0.013942 +0.018059 0
-0.030285 +0.039228 0
-0.003676 +0.004762 0
-0.085652 +0.063874 0
-0.102536 +0.086821 0
-0.050894 +0.034272 0
-0.111642 +0.144611 0
-0.111510 +0.144440 0
-0.103437 +0.133984 0
+0.004494 +0.041251 0
-0.014452 +0.064715 0
+0.009721 +0.019060 0
+0.000000 +0.000000 0
+0.000000 +0.000000 0
+0.000000 +0.000000 0
-0.188639 +0.001519 0
-0.102138 +0.000823 0
-0.246004 +0.001981 0
-0.297975 +0.082276 0
-0.326976 +0.045882 0
-0.203420 +0.105805 0
-0.293536 +0.096763 0
-0.293088 +0.102509 0
-0.292520 +0.090634 0
-0.324825 +0.093063 0
-0.308512 +0.088998 0
-0.338773 +0.096305 0
-0.351204 +0.113413 0
-0.351642 +0.106257 0
-0.349006 +0.120125 0
-0.323475 +0.119170 0
-0.335672 +0.123296 0
-0.308608 +0.113995 0
-0.225792 +0.075174 0
-0.234715 +0.086806 0
-0.231879 +0.068627 0
-0.307326 +0.069420 0
-0.277177 +0.066092 0
-0.335965 +0.076882 0
-0.366701 +0.115599 0
-0.367738 +0.101372 0
-0.356343 +0.128324 0
-0.307322 +0.134155 0
-0.326456 +0.139713 0
-0.281663 +0.120113 0
-0.274110 +0.106011 0
-0.282871 +0.107077 0
-0.265189 +0.104924 0
-0.271212 +0.074979 0
-0.280844 +0.079569 0
-0.261286 +0.070277 0
-0.355151 +0.093756 0
-0.352950 +0.096332 0
-0.357311 +0.091090 0
-0.345835 +0.132397 0
-0.345921 +0.129482 0
-0.345747 +0.135372 0
-0.128036 +0.064216 0
-0.194603 +0.087563 0
-0.062070 +0.034362 0
-0.111447 +0.018845 0
-0.182844 +0.040457 0
-0.048874 +0.005126 0
-0.334903 +0.043984 0
-0.353446 +0.067445 0
-0.304733 +0.021593 0
-0.260861 +0.145813 0
-0.314599 +0.146076 0
-0.183408 +0.134628 0
+0.000000 +0.000000 0
+0.000000 +0.000000 0
+0.000000 +0.000000 0
+0.496087 -0.152231 0
+0.289645 -0.091193 0
+0.556819 -0.160963 0
+0.092904 -0.080625 0
+0.306324 -0.106634 0
-0.115335 -0.042320 0
+0.168410 -0.095755 0
+0.139474 -0.089402 0
+0.196996 -0.101736 0
+0.246940 -0.118553 0
+0.237070 -0.113419 0
+0.254455 -0.122642 0
+0.189947 -0.112114 0
+0.225079 -0.119127 0
+0.154474 -0.104669 0
+0.117783 -0.091396 0
+0.119148 -0.094536 0
+0.114844 -0.087438 0
+0.133180 -0.074429 0
+0.094809 -0.067523 0
+0.180824 -0.086372 0
+0.337060 -0.134394 0
+0.295017 -0.120221 0
+0.344373 -0.139858 0
+0.184534 -0.114131 0
+0.257571 -0.127528 0
+0.113837 -0.099327 0
+0.020270 -0.067108 0
+0.027020 -0.074394 0
+0.035325 -0.064145 0
+0.085012 -0.073479 0
+0.097464 -0.078092 0
+0.072321 -0.068755 0
+0.233859 -0.105687 0
+0.229969 -0.106651 0
+0.237808 -0.104703 0
+0.288426 -0.131935 0
+0.274071 -0.128903 0
+0.303074 -0.135028 0
+0.089650 -0.091617 0
+0.104546 -0.094331 0
+0.074362 -0.088812 0
-0.023622 -0.017757 0
+0.007928 -0.039048 0
-0.025716 -0.004525 0
+0.181160 -0.064644 0
+0.226220 -0.087817 0
+0.103637 -0.034697 0
+0.442402 -0.147275 0
+0.387829 -0.146665 0
+0.468172 -0.136921 0
-0.132863 -0.040217 0
-0.037329 -0.064298 0
-0.211079 -0.017438 0
+0.000000 +0.000000 0
+0.000000 +0.000000 0
+0.000000 +0.000000 0
+0.000000 +0.000000 0
+0.000000 +0.000000 0
+0.000000 +0.000000 0
+0.442983 -0.083444 0
+0.254211 -0.045296 0
+0.516181 -0.108324 0
+0.382013 -0.097476 0
+0.401308 -0.103381 0
+0.360468 -0.091182 0
+0.378943 -0.093499 0
+0.359096 -0.089405 0
+0.396202 -0.096767 0
+0.465230 -0.114331 0
+0.439271 -0.106963 0
+0.488424 -0.121248 0
+0.469876 -0.120349 0
+0.490971 -0.124547 0
+0.445551 -0.115098 0
+0.291278 -0.075702 0
+0.331639 -0.087587 0
+0.269986 -0.068934 0
+0.286297 -0.069250 0
+0.267734 -0.066016 0
+0.323296 -0.076780 0
+0.495514 -0.116636 0
+0.437580 -0.101934 0
+0.535878 -0.129769 0
+0.510301 -0.135790 0
+0.544913 -0.141473 0
+0.452678 -0.121491 0
+0.405773 -0.107072 0
+0.412541 -0.108122 0
+0.398807 -0.106000 0
+0.299674 -0.075208 0
+0.318252 -0.079871 0
+0.280648 -0.070433 0
+0.395745 -0.094083 0
+0.403755 -0.096741 0
+0.387485 -0.091333 0
+0.533573 -0.133909 0
+0.521569 -0.130896 0
+0.545822 -0.136983 0
+0.223545 -0.064985 0
+0.318287 -0.088559 0
+0.114813 -0.034787 0
+0.073883 -0.018542 0
+0.160487 -0.040277 0
+0.019481 -0.004889 0
+0.206534 -0.042950 0
+0.301665 -0.067028 0
+0.103375 -0.019971 0
+0.591621 -0.148477 0
+0.590919 -0.148301 0
+0.548143 -0.137565 0
+0.283623 -0.063685 0
+0.098563 +0.030017 0
+0.396259 -0.135625 0
+0.276394 -0.115188 0
+0.360443 -0.150217 0
+0.149653 -0.062368 0
+0.000000 +0.000000 0
+0.000000 +0.000000 0
+0.000000 +0.000000 0
+0.250724 -0.024935 0
+0.238621 -0.023341 0
+0.260881 -0.026419 0
+0.302805 -0.050721 0
+0.286696 -0.039414 0
+0.317157 -0.061589 0
+0.302719 -0.064429 0
+0.317163 -0.068313 0
+0.286351 -0.060293 0
+0.249307 -0.039472 0
+0.259540 -0.047915 0
+0.237639 -0.030685 0
+0.198110 +0.007309 0
+0.187010 +0.002492 0
+0.215795 +0.003627 0
+0.321566 -0.057133 0
+0.281859 -0.031844 0
+0.350345 -0.078843 0
+0.322089 -0.088542 0
+0.350201 -0.095323 0
+0.283822 -0.074700 0
+0.190347 -0.029262 0
+0.211900 -0.042747 0
+0.181284 -0.017596 0
+0.202833 -0.013685 0
+0.213764 -0.017561 0
+0.191708 -0.009742 0
+0.258500 -0.019271 0
+0.264210 -0.023641 0
+0.252673 -0.014812 0
+0.346295 -0.082284 0
+0.338101 -0.077099 0
+0.354596 -0.087575 0
+0.257972 -0.057829 0
+0.263442 -0.057028 0
+0.252279 -0.058611 0
+0.066595 +0.015370 0
+0.120443 +0.008497 0
+0.026096 +0.012236 0
+0.106993 +0.053494 0
+0.186057 +0.020428 0
+0.013735 +0.085152 0
+0.411631 -0.143371 0
+0.394156 -0.120178 0
+0.409843 -0.157742 0
+0.128922 -0.041480 0
+0.193244 -0.053929 0
+0.062547 -0.022837 0
-0.188639 +0.001519 0
-0.246004 +0.001981 0
-0.102138 +0.000823 0
+0.276394 -0.115188 0
+0.149653 -0.062368 0
+0.360443 -0.150217 0
-0.024559 -0.022718 0
-0.002464 -0.024298 0
-0.046175 -0.021047 0
-0.011854 -0.037369 0
-0.039416 -0.028454 0
+0.015288 -0.045947 0
+0.089116 -0.062709 0
+0.065357 -0.058513 0
+0.112851 -0.066668 0
+0.079869 -0.048926 0
+0.108676 -0.059910 0
+0.050180 -0.037510 0
-0.112871 +0.009813 0
-0.062512 +0.005868 0
-0.136734 +0.005100 0
-0.075680 -0.027120 0
-0.114992 -0.015210 0
-0.020509 -0.040875 0
+0.163990 -0.087269 0
+0.108645 -0.073289 0
+0.199387 -0.094108 0
+0.148325 -0.055738 0
+0.192684 -0.077573 0
+0.081319 -0.030229 0
+0.013353 -0.017296 0
+0.016712 -0.021647 0
+0.009926 -0.012857 0
-0.103263 -0.011220 0
-0.085446 -0.015152 0
-0.121415 -0.007220 0
+0.043310 -0.056100 0
+0.042654 -0.055250 0
+0.043953 -0.056933 0
+0.174380 -0.080899 0
+0.155529 -0.075628 0
+0.193597 -0.086278 0
-0.042226 +0.054696 0
-0.017033 +0.022063 0
-0.066235 +0.085796 0
-0.272801 +0.018103 0
-0.218550 +0.011227 0
-0.288358 +0.014768 0
+0.031417 -0.040695 0
+0.040685 -0.052700 0
+0.017349 -0.022473 0
+0.369246 -0.143029 0
+0.302090 -0.119436 0
+0.398667 -0.157652 0
-0.016846 +0.061537 0
+0.249338 -0.032819 0
-0.251813 +0.134462 0
-0.276394 +0.115188 0
-0.360443 +0.150217 0
-0.149653 +0.062368 0
-0.136698 +0.024017 0
-0.150992 +0.022635 0
-0.121463 +0.025296 0
-0.156404 +0.049542 0
-0.131397 +0.038164 0
-0.180213 +0.060486 0
-0.214242 +0.063717 0
-0.208943 +0.067442 0
-0.218404 +0.059746 0
-0.195188 +0.039036 0
-0.208955 +0.047507 0
-0.180209 +0.030223 0
-0.069297 -0.008346 0
-0.117167 -0.003055 0
-0.036260 -0.005072 0
-0.118586 +0.055499 0
-0.063402 +0.030084 0
-0.179330 +0.077466 0
-0.256602 +0.088015 0
-0.253278 +0.094542 0
-0.245715 +0.074393 0
-0.211375 +0.029432 0
-0.221343 +0.042823 0
-0.193953 +0.017698 0
-0.162239 +0.013358 0
-0.162958 +0.017152 0
-0.161534 +0.009499 0
-0.070762 +0.017759 0
-0.088561 +0.022226 0
-0.052598 +0.013200 0
-0.214631 +0.081223 0
-0.208432 +0.076054 0
-0.220978 +0.086498 0
-0.229510 +0.057599 0
-0.226034 +0.056727 0
-0.232918 +0.058455 0
-0.194964 -0.014336 0
-0.172225 -0.008080 0
-0.227454 -0.010614 0
+0.223767 -0.056158 0
+0.090263 -0.022653 0
+0.350999 -0.088089 0
-0.316122 +0.142601 0
-0.270472 +0.119182 0
-0.357099 +0.157317 0
-0.166486 +0.041783 0
-0.215601 +0.054109 0
-0.091940 +0.023074 0
+0.000000 +0.000000 0
+0.000000 +0.000000 0
+0.000000 +0.000000 0
-0.276394 +0.115188 0
-0.149653 +0.062368 0
-0.360443 +0.150217 0
+0.138585 +0.021800 0
+0.141882 +0.023175 0
+0.133805 +0.020342 0
+0.065973 +0.036933 0
+0.096845 +0.027991 0
+0.035297 +0.045540 0
-0.000638 +0.061996 0
+0.002590 +0.057966 0
-0.004631 +0.065796 0
+0.066532 +0.047747 0
+0.028268 +0.058807 0
+0.105119 +0.036259 0
+0.241683 -0.010851 0
+0.242047 -0.007314 0
+0.206576 -0.005662 0
+0.054652 +0.027289 0
+0.102323 +0.015312 0
+0.011066 +0.040952 0
-0.098504 +0.086742 0
-0.070538 +0.072982 0
-0.102464 +0.093328 0
+0.054654 +0.054103 0
-0.021669 +0.076196 0
+0.137138 +0.028469 0
+0.174385 +0.015784 0
+0.158936 +0.020233 0
+0.190149 +0.011245 0
+0.143857 +0.010893 0
+0.136251 +0.014742 0
+0.151589 +0.006977 0
-0.014848 +0.055870 0
-0.005246 +0.054949 0
-0.024591 +0.056777 0
-0.042717 +0.079839 0
-0.025859 +0.074584 0
-0.059978 +0.085202 0
+0.372986 -0.057360 0
+0.293353 -0.024289 0
+0.430970 -0.088733 0
+0.144432 -0.017069 0
+0.166769 -0.010810 0
+0.087000 -0.013147 0
-0.068981 +0.040997 0
-0.063042 +0.052880 0
-0.046742 +0.022710 0
-0.273738 +0.142260 0
-0.178406 +0.118440 0
-0.345924 +0.157227 0
+0.016846 -0.061537 0
+0.251813 -0.134462 0
-0.249338 +0.032819 0
-0.442983 +0.083444 0
-0.516181 +0.108324 0
-0.254211 +0.045296 0
+0.000000 +0.000000 0
+0.000000 +0.000000 0
+0.000000 +0.000000 0
+0.000638 -0.061996 0
-0.002590 -0.057966 0
+0.004631 -0.065796 0
-0.066532 -0.047747 0
-0.028268 -0.058807 0
-0.105119 -0.036259 0
-0.138585 -0.021800 0
-0.141882 -0.023175 0
-0.133805 -0.020342 0
-0.065973 -0.036933 0
-0.096845 -0.027991 0
-0.035297 -0.045540 0
+0.098504 -0.086742 0
+0.070538 -0.072982 0
+0.102464 -0.093328 0
-0.054654 -0.054103 0
+0.021669 -0.076196 0
-0.137138 -0.028469 0
-0.241683 +0.010851 0
-0.242047 +0.007314 0
-0.206576 +0.005662 0
-0.054652 -0.027289 0
-0.102323 -0.015312 0
-0.011066 -0.040952 0
+0.014848 -0.055870 0
+0.005246 -0.054949 0
+0.024591 -0.056777 0
+0.042717 -0.079839 0
+0.025859 -0.074584 0
+0.059978 -0.085202 0
-0.174385 -0.015784 0
-0.158936 -0.020233 0
-0.190149 -0.011245 0
-0.143857 -0.010893 0
-0.136251 -0.014742 0
-0.151589 -0.006977 0
+0.068981 -0.040997 0
+0.063042 -0.052880 0
+0.046742 -0.022710 0
+0.273738 -0.142260 0
+0.178406 -0.118440 0
+0.345924 -0.157227 0
-0.372986 +0.057360 0
-0.293353 +0.024289 0
-0.430970 +0.088733 0
-0.144432 +0.017069 0
-0.166769 +0.010810 0
-0.087000 +0.013147 0
+0.188639 -0.001519 0
+0.102138 -0.000823 0
+0.246004 -0.001981 0
-0.092904 +0.080625 0
+0.115335 +0.042320 0
-0.306324 +0.106634 0
+0.214242 -0.063717 0
+0.208943 -0.067442 0
+0.218404 -0.059746 0
+0.195188 -0.039036 0
+0.208955 -0.047507 0
+0.180209 -0.030223 0
+0.136698 -0.024017 0
+0.150992 -0.022635 0
+0.121463 -0.025296 0
+0.156404 -0.049542 0
+0.131397 -0.038164 0
+0.180213 -0.060486 0
+0.256602 -0.088015 0
+0.253278 -0.094542 0
+0.245715 -0.074393 0
+0.211375 -0.029432 0
+0.221343 -0.042823 0
+0.193953 -0.017698 0
+0.069297 +0.008346 0
+0.117167 +0.003055 0
+0.036260 +0.005072 0
+0.118586 -0.055499 0
+0.063402 -0.030084 0
+0.179330 -0.077466 0
+0.214631 -0.081223 0
+0.208432 -0.076054 0
+0.220978 -0.086498 0
+0.229510 -0.057599 0
+0.226034 -0.056727 0
+0.232918 -0.058455 0
+0.162239 -0.013358 0
+0.162958 -0.017152 0
+0.161534 -0.009499 0
+0.070762 -0.017759 0
+0.088561 -0.022226 0
+0.052598 -0.013200 0
+0.316122 -0.142601 0
+0.270472 -0.119182 0
+0.357099 -0.157317 0
+0.166486 -0.041783 0
+0.215601 -0.054109 0
+0.091940 -0.023074 0
+0.194964 +0.014336 0
+0.172225 +0.008080 0
+0.227454 +0.010614 0
-0.223767 +0.056158 0
-0.090263 +0.022653 0
-0.350999 +0.088089 0
-0.283623 +0.063685 0
-0.396259 +0.135625 0
-0.098563 -0.030017 0
+0.297975 -0.082276 0
+0.203420 -0.105805 0
+0.326976 -0.045882 0
-0.089116 +0.062709 0
-0.065357 +0.058513 0
-0.112851 +0.066668 0
-0.079869 +0.048926 0
-0.108676 +0.059910 0
-0.050180 +0.037510 0
+0.024559 +0.022718 0
+0.002464 +0.024298 0
+0.046175 +0.021047 0
+0.011854 +0.037369 0
+0.039416 +0.028454 0
-0.015288 +0.045947 0
-0.163990 +0.087269 0
-0.108645 +0.073289 0
-0.199387 +0.094108 0
-0.148325 +0.055738 0
-0.192684 +0.077573 0
-0.081319 +0.030229 0
+0.112871 -0.009813 0
+0.062512 -0.005868 0
+0.136734 -0.005100 0
+0.075680 +0.027120 0
+0.114992 +0.015210 0
+0.020509 +0.040875 0
-0.043310 +0.056100 0
-0.042654 +0.055250 0
-0.043953 +0.056933 0
-0.174380 +0.080899 0
-0.155529 +0.075628 0
-0.193597 +0.086278 0
-0.013353 +0.017296 0
-0.016712 +0.021647 0
-0.009926 +0.012857 0
+0.103263 +0.011220 0
+0.085446 +0.015152 0
+0.121415 +0.007220 0
-0.031417 +0.040695 0
-0.040685 +0.052700 0
-0.017349 +0.022473 0
-0.369246 +0.143029 0
-0.302090 +0.119436 0
-0.398667 +0.157652 0
+0.042226 -0.054696 0
+0.017033 -0.022063 0
+0.066235 -0.085796 0
+0.272801 -0.018103 0
+0.218550 -0.011227 0
+0.288358 -0.014768 0
+0.000000 +0.000000 0
+0.000000 +0.000000 0
+0.000000 +0.000000 0
-0.052103 -0.079457 0
-0.042571 -0.042906 0
-0.006437 -0.104115 0
-0.302719 +0.064429 0
-0.317163 +0.068313 0
-0.286351 +0.060293 0
-0.249307 +0.039472 0
-0.259540 +0.047915 0
-0.237639 +0.030685 0
-0.250724 +0.024935 0
-0.238621 +0.023341 0
-0.260881 +0.026419 0
-0.302805 +0.050721 0
-0.286696 +0.039414 0
-0.317157 +0.061589 0
-0.322089 +0.088542 0
-0.350201 +0.095323 0
-0.283822 +0.074700 0
-0.190347 +0.029262 0
-0.211900 +0.042747 0
-0.181284 +0.017596 0
-0.198110 -0.007309 0
-0.187010 -0.002492 0
-0.215795 -0.003627 0
-0.321566 +0.057133 0
-0.281859 +0.031844 0
-0.350345 +0.078843 0
-0.346295 +0.082284 0
-0.338101 +0.077099 0
-0.354596 +0.087575 0
-0.257972 +0.057829 0
-0.263442 +0.057028 0
-0.252279 +0.058611 0
-0.202833 +0.013685 0
-0.213764 +0.017561 0
-0.191708 +0.009742 0
-0.258500 +0.019271 0
-0.264210 +0.023641 0
-0.252673 +0.014812 0
-0.411631 +0.143371 0
-0.394156 +0.120178 0
-0.409843 +0.157742 0
-0.128922 +0.041480 0
-0.193244 +0.053929 0
-0.062547 +0.022837 0
-0.066595 -0.015370 0
-0.120443 -0.008497 0
-0.026096 -0.012236 0
-0.106993 -0.053494 0
-0.186057 -0.020428 0
-0.013735 -0.085152 0
-0.496087 +0.152231 0
-0.556819 +0.160963 0
-0.289645 +0.091193 0
+0.000000 +0.000000 0
+0.000000 +0.000000 0
+0.000000 +0.000000 0
+0.000000 +0.000000 0
+0.000000 +0.000000 0
+0.000000 +0.000000 0
-0.465230 +0.114331 0
-0.439271 +0.106963 0
-0.488424 +0.121248 0
-0.469876 +0.120349 0
-0.490971 +0.124547 0
-0.445551 +0.115098 0
-0.382013 +0.097476 0
-0.401308 +0.103381 0
-0.360468 +0.091182 0
-0.378943 +0.093499 0
-0.359096 +0.089405 0
-0.396202 +0.096767 0
-0.495514 +0.116636 0
-0.437580 +0.101934 0
-0.535878 +0.129769 0
-0.510301 +0.135790 0
-0.544913 +0.141473 0
-0.452678 +0.121491 0
-0.291278 +0.075702 0
-0.331639 +0.087587 0
-0.269986 +0.068934 0
-0.286297 +0.069250 0
-0.267734 +0.066016 0
-0.323296 +0.076780 0
-0.395745 +0.094083 0
-0.403755 +0.096741 0
-0.387485 +0.091333 0
-0.533573 +0.133909 0
-0.521569 +0.130896 0
-0.545822 +0.136983 0
-0.405773 +0.107072 0
-0.412541 +0.108122 0
-0.398807 +0.106000 0
-0.299674 +0.075208 0
-0.318252 +0.079871 0
-0.280648 +0.070433 0
-0.206534 +0.042950 0
-0.301665 +0.067028 0
-0.103375 +0.019971 0
-0.591621 +0.148477 0
-0.590919 +0.148301 0
-0.548143 +0.137565 0
-0.223545 +0.064985 0
-0.318287 +0.088559 0
-0.114813 +0.034787 0
-0.073883 +0.018542 0
-0.160487 +0.040277 0
-0.019481 +0.004889 0
+0.188639 -0.001519 0
+0.246004 -0.001981 0
+0.102138 -0.000823 0
+0.000000 +0.000000 0
+0.000000 +0.000000 0
+0.000000 +0.000000 0
-0.189947 +0.112114 0
-0.225079 +0.119127 0
-0.154474 +0.104669 0
-0.117783 +0.091396 0
-0.119148 +0.094536 0
-0.114844 +0.087438 0
-0.168410 +0.095755 0
-0.139474 +0.089402 0
-0.196996 +0.101736 0
-0.246940 +0.118553 0
-0.237070 +0.113419 0
-0.254455 +0.122642 0
-0.184534 +0.114131 0
-0.257571 +0.127528 0
-0.113837 +0.099327 0
-0.020270 +0.067108 0
-0.027020 +0.074394 0
-0.035325 +0.064145 0
-0.133180 +0.074429 0
-0.094809 +0.067523 0
-0.180824 +0.086372 0
-0.337060 +0.134394 0