# vtk DataFile Version 2.0
MyTitle
ASCII
DATASET UNSTRUCTURED_GRID
POINTS 1761 double
0.000000 0.000000 0.000000
1.000000 0.000000 0.000000
1.000000 1.000000 0.000000
0.000000 1.000000 0.000000
0.420000 0.420000 0.000000
0.580000 0.420000 0.000000
0.580000 0.580000 0.000000
0.420000 0.580000 0.000000
0.358579 0.358579 0.000000
0.641421 0.358579 0.000000
0.641421 0.641421 0.000000
0.358579 0.641421 0.000000
2.000000 0.000000 0.000000
2.000000 1.000000 0.000000
1.420000 0.420000 0.000000
1.580000 0.420000 0.000000
1.580000 0.580000 0.000000
1.420000 0.580000 0.000000
1.358579 0.358579 0.000000
1.641421 0.358579 0.000000
1.641421 0.641421 0.000000
1.358579 0.641421 0.000000
3.000000 0.000000 0.000000
3.000000 1.000000 0.000000
2.420000 0.420000 0.000000
2.580000 0.420000 0.000000
2.580000 0.580000 0.000000
2.420000 0.580000 0.000000
2.358579 0.358579 0.000000
2.641421 0.358579 0.000000
2.641421 0.641421 0.000000
2.358579 0.641421 0.000000
4.000000 0.000000 0.000000
4.000000 1.000000 0.000000
3.420000 0.420000 0.000000
3.580000 0.420000 0.000000
3.580000 0.580000 0.000000
3.420000 0.580000 0.000000
3.358579 0.358579 0.000000
3.641421 0.358579 0.000000
3.641421 0.641421 0.000000
3.358579 0.641421 0.000000
1.000000 2.000000 0.000000
0.000000 2.000000 0.000000
0.420000 1.420000 0.000000
0.580000 1.420000 0.000000
0.580000 1.580000 0.000000
0.420000 1.580000 0.000000
0.358579 1.358579 0.000000
0.641421 1.358579 0.000000
0.641421 1.641421 0.000000
0.358579 1.641421 0.000000
2.000000 2.000000 0.000000
1.420000 1.420000 0.000000
1.580000 1.420000 0.000000
1.580000 1.580000 0.000000
1.420000 1.580000 0.000000
1.358579 1.358579 0.000000
1.641421 1.358579 0.000000
1.641421 1.641421 0.000000
1.358579 1.641421 0.000000
3.000000 2.000000 0.000000
2.420000 1.420000 0.000000
2.580000 1.420000 0.000000
2.580000 1.580000 0.000000
2.420000 1.580000 0.000000
2.358579 1.358579 0.000000
2.641421 1.358579 0.000000
2.641421 1.641421 0.000000
2.358579 1.641421 0.000000
4.000000 2.000000 0.000000
3.420000 1.420000 0.000000
3.580000 1.420000 0.000000
3.580000 1.580000 0.000000
3.420000 1.580000 0.000000
3.358579 1.358579 0.000000
3.641421 1.358579 0.000000
3.641421 1.641421 0.000000
3.358579 1.641421 0.000000
1.000000 3.000000 0.000000
0.000000 3.000000 0.000000
0.420000 2.420000 0.000000
0.580000 2.420000 0.000000
0.580000 2.580000 0.000000
0.420000 2.580000 0.000000
0.358579 2.358579 0.000000
0.641421 2.358579 0.000000
0.641421 2.641421 0.000000
0.358579 2.641421 0.000000
2.000000 3.000000 0.000000
1.420000 2.420000 0.000000
1.580000 2.420000 0.000000
1.580000 2.580000 0.000000
1.420000 2.580000 0.000000
1.358579 2.358579 0.000000
1.641421 2.358579 0.000000
1.641421 2.641421 0.000000
1.358579 2.641421 0.000000
3.000000 3.000000 0.000000
2.420000 2.420000 0.000000
2.580000 2.420000 0.000000
2.580000 2.580000 0.000000
2.420000 2.580000 0.000000
2.358579 2.358579 0.000000
2.641421 2.358579 0.000000
2.641421 2.641421 0.000000
2.358579 2.641421 0.000000
4.000000 3.000000 0.000000
3.420000 2.420000 0.000000
3.580000 2.420000 0.000000
3.580000 2.580000 0.000000
3.420000 2.580000 0.000000
3.358579 2.358579 0.000000
3.641421 2.358579 0.000000
3.641421 2.641421 0.000000
3.358579 2.641421 0.000000
1.000000 4.000000 0.000000
0.000000 4.000000 0.000000
0.420000 3.420000 0.000000
0.580000 3.420000 0.000000
0.580000 3.580000 0.000000
0.420000 3.580000 0.000000
0.358579 3.358579 0.000000
0.641421 3.358579 0.000000
0.641421 3.641421 0.000000
0.358579 3.641421 0.000000
2.000000 4.000000 0.000000
1.420000 3.420000 0.000000
1.580000 3.420000 0.000000
1.580000 3.580000 0.000000
1.420000 3.580000 0.000000
1.358579 3.358579 0.000000
1.641421 3.358579 0.000000
1.641421 3.641421 0.000000
1.358579 3.641421 0.000000
3.000000 4.000000 0.000000
2.420000 3.420000 0.000000
2.580000 3.420000 0.000000
2.580000 3.580000 0.000000
2.420000 3.580000 0.000000
2.358579 3.358579 0.000000
2.641421 3.358579 0.000000
2.641421 3.641421 0.000000
2.358579 3.641421 0.000000
4.000000 4.000000 0.000000
3.420000 3.420000 0.000000
3.580000 3.420000 0.000000
3.580000 3.580000 0.000000
3.420000 3.580000 0.000000
3.358579 3.358579 0.000000
3.641421 3.358579 0.000000
3.641421 3.641421 0.000000
3.358579 3.641421 0.000000
0.500000 0.000000 0.000000
0.250000 0.000000 0.000000
0.750000 0.000000 0.000000
1.000000 0.500000 0.000000
1.000000 0.250000 0.000000
1.000000 0.750000 0.000000
0.500000 1.000000 0.000000
0.750000 1.000000 0.000000
0.250000 1.000000 0.000000
0.000000 0.500000 0.000000
0.000000 0.750000 0.000000
0.000000 0.250000 0.000000
0.500000 0.420000 0.000000
0.460000 0.420000 0.000000
0.540000 0.420000 0.000000
0.580000 0.500000 0.000000
0.580000 0.460000 0.000000
0.580000 0.540000 0.000000
0.500000 0.580000 0.000000
0.540000 0.580000 0.000000
0.460000 0.580000 0.000000
0.420000 0.500000 0.000000
0.420000 0.540000 0.000000
0.420000 0.460000 0.000000
0.500000 0.300001 0.000000
0.423464 0.315225 0.000000
0.576536 0.315225 0.000000
0.699999 0.500000 0.000000
0.684775 0.423464 0.000000
0.684775 0.576536 0.000000
0.500000 0.699999 0.000000
0.576536 0.684775 0.000000
0.423464 0.684775 0.000000
0.300001 0.500000 0.000000
0.315225 0.576536 0.000000
0.315225 0.423464 0.000000
0.389290 0.389290 0.000000
0.404645 0.404645 0.000000
0.373934 0.373934 0.000000
0.610710 0.389290 0.000000
0.595355 0.404645 0.000000
0.626066 0.373934 0.000000
0.610710 0.610710 0.000000
0.595355 0.595355 0.000000
0.626066 0.626066 0.000000
0.389290 0.610710 0.000000
0.404645 0.595355 0.000000
0.373934 0.626066 0.000000
0.179290 0.179290 0.000000
0.268934 0.268934 0.000000
0.089645 0.089645 0.000000
0.820710 0.179290 0.000000
0.731066 0.268934 0.000000
0.910355 0.089645 0.000000
0.820710 0.820710 0.000000
0.731066 0.731066 0.000000
0.910355 0.910355 0.000000
0.179290 0.820710 0.000000
0.268934 0.731066 0.000000
0.089645 0.910355 0.000000
1.500000 0.000000 0.000000
1.250000 0.000000 0.000000
1.750000 0.000000 0.000000
2.000000 0.500000 0.000000
2.000000 0.250000 0.000000
2.000000 0.750000 0.000000
1.500000 1.000000 0.000000
1.750000 1.000000 0.000000
1.250000 1.000000 0.000000
1.500000 0.420000 0.000000
1.460000 0.420000 0.000000
1.540000 0.420000 0.000000
1.580000 0.500000 0.000000
1.580000 0.460000 0.000000
1.580000 0.540000 0.000000
1.500000 0.580000 0.000000
1.540000 0.580000 0.000000
1.460000 0.580000 0.000000
1.420000 0.500000 0.000000
1.420000 0.540000 0.000000
1.420000 0.460000 0.000000
1.500000 0.300001 0.000000
1.423464 0.315225 0.000000
1.576536 0.315225 0.000000
1.699999 0.500000 0.000000
1.684775 0.423464 0.000000
1.684775 0.576536 0.000000
1.500000 0.699999 0.000000
1.576536 0.684775 0.000000
1.423464 0.684775 0.000000
1.300001 0.500000 0.000000
1.315225 0.576536 0.000000
1.315225 0.423464 0.000000
1.389290 0.389290 0.000000
1.404645 0.404645 0.000000
1.373934 0.373934 0.000000
1.610710 0.389290 0.000000
1.595355 0.404645 0.000000
1.626066 0.373934 0.000000
1.610710 0.610710 0.000000
1.595355 0.595355 0.000000
1.626066 0.626066 0.000000
1.389290 0.610710 0.000000
1.404645 0.595355 0.000000
1.373934 0.626066 0.000000
1.179290 0.179290 0.000000
1.268934 0.268934 0.000000
1.089645 0.089645 0.000000
1.820710 0.179290 0.000000
1.731066 0.268934 0.000000
1.910355 0.089645 0.000000
1.820710 0.820710 0.000000
1.731066 0.731066 0.000000
1.910355 0.910355 0.000000
1.179290 0.820710 0.000000
1.268934 0.731066 0.000000
1.089645 0.910355 0.000000
2.500000 0.000000 0.000000
2.250000 0.000000 0.000000
2.750000 0.000000 0.000000
3.000000 0.500000 0.000000
3.000000 0.250000 0.000000
3.000000 0.750000 0.000000
2.500000 1.000000 0.000000
2.750000 1.000000 0.000000
2.250000 1.000000 0.000000
2.500000 0.420000 0.000000
2.460000 0.420000 0.000000
2.540000 0.420000 0.000000
2.580000 0.500000 0.000000
2.580000 0.460000 0.000000
2.580000 0.540000 0.000000
2.500000 0.580000 0.000000
2.540000 0.580000 0.000000
2.460000 0.580000 0.000000
2.420000 0.500000 0.000000
2.420000 0.540000 0.000000
2.420000 0.460000 0.000000
2.500000 0.300001 0.000000
2.423464 0.315225 0.000000
2.576536 0.315225 0.000000
2.699999 0.500000 0.000000
2.684775 0.423464 0.000000
2.684775 0.576536 0.000000
2.500000 0.699999 0.000000
2.576536 0.684775 0.000000
2.423464 0.684775 0.000000
2.300001 0.500000 0.000000
2.315225 0.576536 0.000000
2.315225 0.423464 0.000000
2.389289 0.389289 0.000000
2.404645 0.404645 0.000000
2.373934 0.373934 0.000000
2.610711 0.389289 0.000000
2.595355 0.404645 0.000000
2.626066 0.373934 0.000000
2.610711 0.610711 0.000000
2.595355 0.595355 0.000000
2.626066 0.626066 0.000000
2.389289 0.610711 0.000000
2.404645 0.595355 0.000000
2.373934 0.626066 0.000000
2.179290 0.179290 0.000000
2.268934 0.268934 0.000000
2.089645 0.089645 0.000000
2.820710 0.179290 0.000000
2.731066 0.268934 0.000000
2.910355 0.089645 0.000000
2.820710 0.820710 0.000000
2.731066 0.731066 0.000000
2.910355 0.910355 0.000000
2.179290 0.820710 0.000000
2.268934 0.731066 0.000000
2.089645 0.910355 0.000000
3.500000 0.000000 0.000000
3.250000 0.000000 0.000000
3.750000 0.000000 0.000000
4.000000 0.500000 0.000000
4.000000 0.250000 0.000000
4.000000 0.750000 0.000000
3.500000 1.000000 0.000000
3.750000 1.000000 0.000000
3.250000 1.000000 0.000000
3.500000 0.420000 0.000000
3.460000 0.420000 0.000000
3.540000 0.420000 0.000000
3.580000 0.500000 0.000000
3.580000 0.460000 0.000000
3.580000 0.540000 0.000000
3.500000 0.580000 0.000000
3.540000 0.580000 0.000000
3.460000 0.580000 0.000000
3.420000 0.500000 0.000000
3.420000 0.540000 0.000000
3.420000 0.460000 0.000000
3.500000 0.300001 0.000000
3.423464 0.315225 0.000000
3.576536 0.315225 0.000000
3.699999 0.500000 0.000000
3.684775 0.423464 0.000000
3.684775 0.576536 0.000000
3.500000 0.699999 0.000000
3.576536 0.684775 0.000000
3.423464 0.684775 0.000000
3.300001 0.500000 0.000000
3.315225 0.576536 0.000000
3.315225 0.423464 0.000000
3.389289 0.389289 0.000000
3.404645 0.404645 0.000000
3.373934 0.373934 0.000000
3.610711 0.389289 0.000000
3.595355 0.404645 0.000000
3.626066 0.373934 0.000000
3.610711 0.610711 0.000000
[...]
POINT_DATA 1761
VECTORS sol double
+0.000000 +0.000000 0
+0.000000 +0.000000 0
-0.248401 -0.029248 0
+0.000000 +0.000000 0
-0.052088 -0.006133 0
-0.070784 -0.008335 0
-0.096103 -0.011316 0
-0.070784 -0.008335 0
-0.038199 -0.004498 0
-0.066791 -0.007864 0
-0.115663 -0.013619 0
-0.066791 -0.007864 0
+0.000000 +0.000000 0
-0.351292 -0.041364 0
-0.144448 -0.017008 0
-0.152192 -0.017920 0
-0.206693 -0.024337 0
-0.196206 -0.023103 0
-0.120812 -0.014225 0
-0.132655 -0.015620 0
-0.230363 -0.027125 0
-0.210120 -0.024741 0
+0.000000 +0.000000 0
-0.248401 -0.029248 0
-0.152192 -0.017920 0
-0.144448 -0.017008 0
-0.196206 -0.023103 0
-0.206693 -0.024337 0
-0.132655 -0.015620 0
-0.120812 -0.014225 0
-0.210120 -0.024741 0
-0.230363 -0.027125 0
+0.000000 +0.000000 0
+0.000000 +0.000000 0
-0.070784 -0.008335 0
-0.052088 -0.006133 0
-0.070784 -0.008335 0
-0.096103 -0.011316 0
-0.066791 -0.007864 0
-0.038199 -0.004498 0
-0.066791 -0.007864 0
-0.115663 -0.013619 0
-0.351292 -0.041364 0
+0.000000 +0.000000 0
-0.144448 -0.017008 0
-0.196206 -0.023103 0
-0.206693 -0.024337 0
-0.152192 -0.017920 0
-0.120812 -0.014225 0
-0.210120 -0.024741 0
-0.230363 -0.027125 0
-0.132655 -0.015620 0
-0.496802 -0.058497 0
-0.400486 -0.047156 0
-0.421925 -0.049680 0
-0.444500 -0.052338 0
-0.421925 -0.049680 0
-0.380974 -0.044858 0
-0.417966 -0.049214 0
-0.458438 -0.053980 0
-0.417966 -0.049214 0
-0.351292 -0.041364 0
-0.421925 -0.049680 0
-0.400486 -0.047156 0
-0.421925 -0.049680 0
-0.444500 -0.052338 0
-0.417966 -0.049214 0
-0.380974 -0.044858 0
-0.417966 -0.049214 0
-0.458438 -0.053980 0
+0.000000 +0.000000 0
-0.196206 -0.023103 0
-0.144448 -0.017008 0
-0.152192 -0.017920 0
-0.206693 -0.024337 0
-0.210120 -0.024741 0
-0.120812 -0.014225 0
-0.132655 -0.015620 0
-0.230363 -0.027125 0
-0.248401 -0.029248 0
+0.000000 +0.000000 0
-0.152192 -0.017920 0
-0.206693 -0.024337 0
-0.196206 -0.023103 0
-0.144448 -0.017008 0
-0.132655 -0.015620 0
-0.230363 -0.027125 0
-0.210120 -0.024741 0
-0.120812 -0.014225 0
-0.351292 -0.041364 0
-0.421925 -0.049680 0
-0.444500 -0.052338 0
-0.421925 -0.049680 0
-0.400486 -0.047156 0
-0.417966 -0.049214 0
-0.458438 -0.053980 0
-0.417966 -0.049214 0
-0.380974 -0.044858 0
-0.248401 -0.029248 0
-0.444500 -0.052338 0
-0.421925 -0.049680 0
-0.400486 -0.047156 0
-0.421925 -0.049680 0
-0.458438 -0.053980 0
-0.417966 -0.049214 0
-0.380974 -0.044858 0
-0.417966 -0.049214 0
+0.000000 +0.000000 0
-0.206693 -0.024337 0
-0.152192 -0.017920 0
-0.144448 -0.017008 0
-0.196206 -0.023103 0
-0.230363 -0.027125 0
-0.132655 -0.015620 0
-0.120812 -0.014225 0
-0.210120 -0.024741 0
+0.000000 +0.000000 0
+0.000000 +0.000000 0
-0.070784 -0.008335 0
-0.096103 -0.011316 0
-0.070784 -0.008335 0
-0.052088 -0.006133 0
-0.066791 -0.007864 0
-0.115663 -0.013619 0
-0.066791 -0.007864 0
-0.038199 -0.004498 0
+0.000000 +0.000000 0
-0.196206 -0.023103 0
-0.206693 -0.024337 0
-0.152192 -0.017920 0
-0.144448 -0.017008 0
-0.210120 -0.024741 0
-0.230363 -0.027125 0
-0.132655 -0.015620 0
-0.120812 -0.014225 0
+0.000000 +0.000000 0
-0.206693 -0.024337 0
-0.196206 -0.023103 0
-0.144448 -0.017008 0
-0.152192 -0.017920 0
-0.230363 -0.027125 0
-0.210120 -0.024741 0
-0.120812 -0.014225 0
-0.132655 -0.015620 0
+0.000000 +0.000000 0
-0.096103 -0.011316 0
-0.070784 -0.008335 0
-0.052088 -0.006133 0
-0.070784 -0.008335 0
-0.115663 -0.013619 0
-0.066791 -0.007864 0
-0.038199 -0.004498 0
-0.066791 -0.007864 0
+0.000000 +0.000000 0
+0.000000 +0.000000 0
+0.000000 +0.000000 0
-0.134409 -0.015826 0
-0.068521 -0.008068 0
-0.195030 -0.022964 0
-0.134409 -0.015826 0
-0.195030 -0.022964 0
-0.068521 -0.008068 0
+0.000000 +0.000000 0
+0.000000 +0.000000 0
+0.000000 +0.000000 0
-0.061557 -0.007248 0
-0.056848 -0.006694 0
-0.066205 -0.007795 0
-0.083604 -0.009844 0
-0.077232 -0.009094 0
-0.089894 -0.010585 0
-0.083604 -0.009844 0
-0.089894 -0.010585 0
-0.077232 -0.009094 0
-0.061557 -0.007248 0
-0.066205 -0.007795 0
-0.056848 -0.006694 0
-0.044362 -0.005223 0
-0.039807 -0.004687 0
-0.053169 -0.006260 0
-0.099324 -0.011695 0
-0.082974 -0.009770 0
-0.111325 -0.013108 0
-0.099324 -0.011695 0
-0.111325 -0.013108 0
-0.082974 -0.009770 0
-0.044362 -0.005223 0
-0.053169 -0.006260 0
-0.039807 -0.004687 0
-0.044983 -0.005297 0
-0.048471 -0.005707 0
-0.041473 -0.004883 0
-0.068986 -0.008123 0
-0.069962 -0.008238 0
-0.068016 -0.008009 0
-0.105741 -0.012451 0
-0.100872 -0.011877 0
-0.110617 -0.013025 0
-0.068986 -0.008123 0
-0.069962 -0.008238 0
-0.068016 -0.008009 0
-0.009683 -0.001140 0
-0.022013 -0.002592 0
-0.002430 -0.000286 0
-0.041965 -0.004941 0
-0.056368 -0.006637 0
-0.023001 -0.002708 0
-0.179293 -0.021111 0
-0.146557 -0.017257 0
-0.213303 -0.025116 0
-0.041965 -0.004941 0
-0.056368 -0.006637 0
-0.023001 -0.002708 0
+0.000000 +0.000000 0
+0.000000 +0.000000 0
+0.000000 +0.000000 0
-0.190083 -0.022382 0
-0.096904 -0.011410 0
-0.275814 -0.032476 0
-0.324491 -0.038208 0
-0.344336 -0.040544 0
-0.291934 -0.034374 0
-0.148611 -0.017498 0
-0.146600 -0.017262 0
-0.150476 -0.017718 0
-0.179790 -0.021170 0
-0.166070 -0.019554 0
-0.193334 -0.022764 0
-0.201837 -0.023766 0
-0.204361 -0.024063 0
-0.199116 -0.023445 0
-0.170658 -0.020094 0
-0.183522 -0.021609 0
-0.157627 -0.018560 0
-0.107098 -0.012610 0
-0.109464 -0.012889 0
-0.114999 -0.013541 0
-0.184827 -0.021763 0
-0.157150 -0.018504 0
-0.210605 -0.024798 0
-0.239789 -0.028234 0
-0.240411 -0.028308 0
-0.228668 -0.026925 0
-0.162061 -0.019082 0
-0.186516 -0.021962 0
-0.139270 -0.016399 0
-0.132603 -0.015614 0
-0.138510 -0.016309 0
-0.126667 -0.014915 0
-0.142545 -0.016784 0
-0.147412 -0.017357 0
-0.137662 -0.016209 0
-0.218526 -0.025731 0
-0.212616 -0.025035 0
-0.224453 -0.026429 0
-0.203302 -0.023938 0
-0.199813 -0.023527 0
-0.206806 -0.024351 0
-0.055659 -0.006554 0
-0.087498 -0.010303 0
-0.026438 -0.003113 0
-0.069031 -0.008128 0
-0.101729 -0.011978 0
-0.034959 -0.004116 0
-0.295524 -0.034797 0
-0.263631 -0.031042 0
-0.324657 -0.038227 0
-0.238641 -0.028099 0
-0.226273 -0.026643 0
-0.245832 -0.028946 0
+0.000000 +0.000000 0
+0.000000 +0.000000 0
+0.000000 +0.000000 0
-0.134409 -0.015826 0
-0.068521 -0.008068 0
-0.195030 -0.022964 0
-0.324491 -0.038208 0
-0.291934 -0.034374 0
-0.344336 -0.040544 0
-0.148611 -0.017498 0
-0.150476 -0.017718 0
-0.146600 -0.017262 0
-0.170658 -0.020094 0
-0.157627 -0.018560 0
-0.183522 -0.021609 0
-0.201837 -0.023766 0
-0.199116 -0.023445 0
-0.204361 -0.024063 0
-0.179790 -0.021170 0
-0.193334 -0.022764 0
-0.166070 -0.019554 0
-0.107098 -0.012610 0
-0.114999 -0.013541 0
-0.109464 -0.012889 0
-0.162061 -0.019082 0
-0.139270 -0.016399 0
-0.186516 -0.021962 0
-0.239789 -0.028234 0
-0.228668 -0.026925 0
-0.240411 -0.028308 0
-0.184827 -0.021763 0
-0.210605 -0.024798 0
-0.157150 -0.018504 0
-0.142545 -0.016784 0
-0.147412 -0.017357 0
-0.137662 -0.016209 0
-0.132603 -0.015614 0
-0.138510 -0.016309 0
-0.126667 -0.014915 0
-0.203302 -0.023938 0
-0.199813 -0.023527 0
-0.206806 -0.024351 0
-0.218526 -0.025731 0
-0.212616 -0.025035 0
-0.224453 -0.026429 0
-0.069031 -0.008128 0
-0.101729 -0.011978 0
-0.034959 -0.004116 0
-0.055659 -0.006554 0
-0.087498 -0.010303 0
-0.026438 -0.003113 0
-0.238641 -0.028099 0
-0.226273 -0.026643 0
-0.245832 -0.028946 0
-0.295524 -0.034797 0
-0.263631 -0.031042 0
-0.324657 -0.038227 0
+0.000000 +0.000000 0
+0.000000 +0.000000 0
+0.000000 +0.000000 0
+0.000000 +0.000000 0
+0.000000 +0.000000 0
+0.000000 +0.000000 0
-0.134409 -0.015826 0
-0.068521 -0.008068 0
-0.195030 -0.022964 0
-0.061557 -0.007248 0
-0.066205 -0.007795 0
-0.056848 -0.006694 0
-0.061557 -0.007248 0
-0.056848 -0.006694 0
-0.066205 -0.007795 0
-0.083604 -0.009844 0
-0.077232 -0.009094 0
-0.089894 -0.010585 0
-0.083604 -0.009844 0
-0.089894 -0.010585 0
-0.077232 -0.009094 0
-0.044362 -0.005223 0
-0.053169 -0.006260 0
-0.039807 -0.004687 0
-0.044362 -0.005223 0
-0.039807 -0.004687 0
-0.053169 -0.006260 0
-0.099324 -0.011695 0
-0.082974 -0.009770 0
-0.111325 -0.013108 0
-0.099324 -0.011695 0
-0.111325 -0.013108 0
-0.082974 -0.009770 0
-0.068986 -0.008123 0
-0.069962 -0.008238 0
-0.068016 -0.008009 0
-0.044983 -0.005297 0
-0.048471 -0.005707 0
-0.041473 -0.004883 0
-0.068986 -0.008123 0
-0.069962 -0.008238 0
-0.068016 -0.008009 0
-0.105741 -0.012451 0
-0.100872 -0.011877 0
-0.110617 -0.013025 0
-0.041965 -0.004941 0
-0.056368 -0.006637 0
-0.023001 -0.002708 0
-0.009683 -0.001140 0
-0.022013 -0.002592 0
-0.002430 -0.000286 0
-0.041965 -0.004941 0
-0.056368 -0.006637 0
-0.023001 -0.002708 0
-0.179293 -0.021111 0
-0.146557 -0.017257 0
-0.213303 -0.025116 0
-0.324491 -0.038208 0
-0.291934 -0.034374 0
-0.344336 -0.040544 0
-0.190083 -0.022382 0
-0.275814 -0.032476 0
-0.096904 -0.011410 0
+0.000000 +0.000000 0
+0.000000 +0.000000 0
+0.000000 +0.000000 0
-0.170658 -0.020094 0
-0.157627 -0.018560 0
-0.183522 -0.021609 0
-0.201837 -0.023766 0
-0.199116 -0.023445 0
-0.204361 -0.024063 0
-0.179790 -0.021170 0
-0.193334 -0.022764 0
-0.166070 -0.019554 0
-0.148611 -0.017498 0
-0.150476 -0.017718 0
-0.146600 -0.017262 0
-0.162061 -0.019082 0
-0.139270 -0.016399 0
-0.186516 -0.021962 0
-0.239789 -0.028234 0
-0.228668 -0.026925 0
-0.240411 -0.028308 0
-0.184827 -0.021763 0
-0.210605 -0.024798 0
-0.157150 -0.018504 0
-0.107098 -0.012610 0
-0.114999 -0.013541 0
-0.109464 -0.012889 0
-0.132603 -0.015614 0
-0.138510 -0.016309 0
-0.126667 -0.014915 0
-0.203302 -0.023938 0
-0.199813 -0.023527 0
-0.206806 -0.024351 0
-0.218526 -0.025731 0
-0.212616 -0.025035 0
-0.224453 -0.026429 0
-0.142545 -0.016784 0
-0.147412 -0.017357 0
-0.137662 -0.016209 0
-0.055659 -0.006554 0
-0.087498 -0.010303 0
-0.026438 -0.003113 0
-0.238641 -0.028099 0
-0.226273 -0.026643 0
-0.245832 -0.028946 0
-0.295524 -0.034797 0
-0.263631 -0.031042 0
-0.324657 -0.038227 0
-0.069031 -0.008128 0
-0.101729 -0.011978 0
-0.034959 -0.004116 0
-0.458900 -0.054034 0
-0.412857 -0.048613 0
-0.486964 -0.057338 0
-0.458900 -0.054034 0
-0.486964 -0.057338 0
-0.412857 -0.048613 0
-0.412005 -0.048512 0
-0.406440 -0.047857 0
-0.417166 -0.049120 0
-0.434052 -0.051108 0
-0.428193 -0.050418 0
-0.439486 -0.051748 0
-0.434052 -0.051108 0
-0.439486 -0.051748 0
-0.428193 -0.050418 0
-0.412005 -0.048512 0
-0.417166 -0.049120 0
-0.406440 -0.047857 0
-0.391249 -0.046068 0
-0.383474 -0.045153 0
-0.403044 -0.047457 0
-0.446211 -0.052540 0
-0.432849 -0.050967 0
-0.454991 -0.053574 0
-0.446211 -0.052540 0
-0.454991 -0.053574 0
-0.432849 -0.050967 0
-0.391249 -0.046068 0
-0.403044 -0.047457 0
-0.383474 -0.045153 0
-0.390830 -0.046019 0
-0.395696 -0.046592 0
-0.385941 -0.045443 0
-0.420115 -0.049467 0
-0.421088 -0.049582 0
-0.419136 -0.049352 0
-0.451588 -0.053173 0
-0.448097 -0.052762 0
-0.455086 -0.053585 0
-0.420115 -0.049467 0
-0.421088 -0.049582 0
-0.419136 -0.049352 0
-0.317355 -0.037368 0
-0.350014 -0.041213 0
-0.283221 -0.033348 0
-0.393149 -0.046292 0
-0.407497 -0.047981 0
-0.374097 -0.044049 0
-0.486966 -0.057339 0
-0.474559 -0.055878 0
-0.494094 -0.058178 0
-0.393149 -0.046292 0
-0.407497 -0.047981 0
-0.374097 -0.044049 0
-0.324491 -0.038208 0
-0.291934 -0.034374 0
-0.344336 -0.040544 0
-0.458900 -0.054034 0
-0.412857 -0.048613 0
-0.486964 -0.057338 0
-0.412005 -0.048512 0
-0.417166 -0.049120 0
-0.406440 -0.047857 0
-0.412005 -0.048512 0
-0.406440 -0.047857 0
-0.417166 -0.049120 0
-0.434052 -0.051108 0
-0.428193 -0.050418 0
-0.439486 -0.051748 0
-0.434052 -0.051108 0
-0.439486 -0.051748 0
-0.428193 -0.050418 0
-0.391249 -0.046068 0
-0.403044 -0.047457 0
-0.383474 -0.045153 0
-0.391249 -0.046068 0
-0.383474 -0.045153 0
-0.403044 -0.047457 0
-0.446211 -0.052540 0
-0.432849 -0.050967 0
-0.454991 -0.053574 0
-0.446211 -0.052540 0
-0.454991 -0.053574 0
-0.432849 -0.050967 0
-0.420115 -0.049467 0
-0.421088 -0.049582 0
-0.419136 -0.049352 0
-0.390830 -0.046019 0
-0.395696 -0.046592 0
-0.385941 -0.045443 0
-0.420115 -0.049467 0
-0.421088 -0.049582 0
-0.419136 -0.049352 0
-0.451588 -0.053173 0
-0.448097 -0.052762 0
-0.455086 -0.053585 0
-0.393149 -0.046292 0
-0.407497 -0.047981 0
-0.374097 -0.044049 0
-0.317355 -0.037368 0
-0.350014 -0.041213 0
-0.283221 -0.033348 0
-0.393149 -0.046292 0
-0.407497 -0.047981 0
-0.374097 -0.044049 0
-0.486966 -0.057339 0
-0.474559 -0.055878 0
-0.494094 -0.058178 0
+0.000000 +0.000000 0
+0.000000 +0.000000 0
+0.000000 +0.000000 0
-0.190083 -0.022382 0
-0.096904 -0.011410 0
-0.275814 -0.032476 0
-0.170658 -0.020094 0
-0.183522 -0.021609 0
-0.157627 -0.018560 0
-0.148611 -0.017498 0
-0.146600 -0.017262 0
-0.150476 -0.017718 0
-0.179790 -0.021170 0
-0.166070 -0.019554 0
-0.193334 -0.022764 0
-0.201837 -0.023766 0
-0.204361 -0.024063 0
-0.199116 -0.023445 0
-0.162061 -0.019082 0
-0.186516 -0.021962 0
-0.139270 -0.016399 0
-0.107098 -0.012610 0
-0.109464 -0.012889 0
-0.114999 -0.013541 0
-0.184827 -0.021763 0
-0.157150 -0.018504 0
-0.210605 -0.024798 0
-0.239789 -0.028234 0
-0.240411 -0.028308 0
-0.228668 -0.026925 0
-0.203302 -0.023938 0
-0.199813 -0.023527 0
-0.206806 -0.024351 0
-0.132603 -0.015614 0
-0.138510 -0.016309 0
-0.126667 -0.014915 0
-0.142545 -0.016784 0
-0.147412 -0.017357 0
-0.137662 -0.016209 0
-0.218526 -0.025731 0
-0.212616 -0.025035 0
-0.224453 -0.026429 0
-0.238641 -0.028099 0
-0.226273 -0.026643 0
-0.245832 -0.028946 0
-0.055659 -0.006554 0
-0.087498 -0.010303 0
-0.026438 -0.003113 0
-0.069031 -0.008128 0
-0.101729 -0.011978 0
-0.034959 -0.004116 0
-0.295524 -0.034797 0
-0.263631 -0.031042 0
-0.324657 -0.038227 0
-0.324491 -0.038208 0
-0.344336 -0.040544 0
-0.291934 -0.034374 0
-0.134409 -0.015826 0
-0.195030 -0.022964 0
-0.068521 -0.008068 0
+0.000000 +0.000000 0
+0.000000 +0.000000 0
+0.000000 +0.000000 0
-0.179790 -0.021170 0
-0.166070 -0.019554 0
-0.193334 -0.022764 0
-0.201837 -0.023766 0
-0.204361 -0.024063 0
-0.199116 -0.023445 0
-0.170658 -0.020094 0
-0.183522 -0.021609 0
-0.157627 -0.018560 0
-0.148611 -0.017498 0
-0.146600 -0.017262 0
-0.150476 -0.017718 0
-0.184827 -0.021763 0
-0.157150 -0.018504 0
-0.210605 -0.024798 0
-0.239789 -0.028234 0
-0.240411 -0.028308 0
-0.228668 -0.026925 0
-0.162061 -0.019082 0
-0.186516 -0.021962 0
-0.139270 -0.016399 0
-0.107098 -0.012610 0
-0.109464 -0.012889 0
-0.114999 -0.013541 0
-0.142545 -0.016784 0
-0.147412 -0.017357 0
-0.137662 -0.016209 0
-0.218526 -0.025731 0
-0.212616 -0.025035 0
-0.224453 -0.026429 0
-0.203302 -0.023938 0
-0.199813 -0.023527 0
-0.206806 -0.024351 0
-0.132603 -0.015614 0
-0.138510 -0.016309 0
-0.126667 -0.014915 0
-0.069031 -0.008128 0
-0.101729 -0.011978 0
-0.034959 -0.004116 0
-0.295524 -0.034797 0
-0.263631 -0.031042 0
-0.324657 -0.038227 0
-0.238641 -0.028099 0
-0.226273 -0.026643 0
-0.245832 -0.028946 0
-0.055659 -0.006554 0
-0.087498 -0.010303 0
-0.026438 -0.003113 0
-0.458900 -0.054034 0
-0.486964 -0.057338 0
-0.412857 -0.048613 0
-0.324491 -0.038208 0
-0.344336 -0.040544 0
-0.291934 -0.034374 0
-0.434052 -0.051108 0
-0.428193 -0.050418 0
-0.439486 -0.051748 0
-0.434052 -0.051108 0
-0.439486 -0.051748 0
-0.428193 -0.050418 0
-0.412005 -0.048512 0
-0.417166 -0.049120 0
-0.406440 -0.047857 0
-0.412005 -0.048512 0
-0.406440 -0.047857 0
-0.417166 -0.049120 0
-0.446211 -0.052540 0
-0.432849 -0.050967 0
-0.454991 -0.053574 0
-0.446211 -0.052540 0
-0.454991 -0.053574 0
-0.432849 -0.050967 0
-0.391249 -0.046068 0
-0.403044 -0.047457 0
-0.383474 -0.045153 0
-0.391249 -0.046068 0
-0.383474 -0.045153 0
-0.403044 -0.047457 0
-0.420115 -0.049467 0
-0.421088 -0.049582 0
-0.419136 -0.049352 0
-0.451588 -0.053173 0
-0.448097 -0.052762 0
-0.455086 -0.053585 0
-0.420115 -0.049467 0
-0.421088 -0.049582 0
-0.419136 -0.049352 0
-0.390830 -0.046019 0
-0.395696 -0.046592 0
-0.385941 -0.045443 0
-0.393149 -0.046292 0
-0.407497 -0.047981 0
-0.374097 -0.044049 0
-0.486966 -0.057339 0
-0.474559 -0.055878 0
-0.494094 -0.058178 0
-0.393149 -0.046292 0
-0.407497 -0.047981 0
-0.374097 -0.044049 0
-0.317355 -0.037368 0
-0.350014 -0.041213 0
-0.283221 -0.033348 0
-0.324491 -0.038208 0
-0.344336 -0.040544 0
-0.291934 -0.034374 0
-0.324491 -0.038208 0
-0.291934 -0.034374 0
-0.344336 -0.040544 0
-0.434052 -0.051108 0
-0.439486 -0.051748 0
-0.428193 -0.050418 0
-0.412005 -0.048512 0
-0.417166 -0.049120 0
-0.406440 -0.047857 0
-0.412005 -0.048512 0
-0.406440 -0.047857 0
-0.417166 -0.049120 0
-0.434052 -0.051108 0
-0.428193 -0.050418 0
-0.439486 -0.051748 0
-0.446211 -0.052540 0
-0.454991 -0.053574 0
-0.432849 -0.050967 0
-0.391249 -0.046068 0
-0.403044 -0.047457 0
-0.383474 -0.045153 0
-0.391249 -0.046068 0
-0.383474 -0.045153 0
-0.403044 -0.047457 0
-0.446211 -0.052540 0
-0.432849 -0.050967 0
-0.454991 -0.053574 0
-0.451588 -0.053173 0
-0.448097 -0.052762 0
-0.455086 -0.053585 0
-0.420115 -0.049467 0
-0.421088 -0.049582 0
-0.419136 -0.049352 0
-0.390830 -0.046019 0
-0.395696 -0.046592 0
-0.385941 -0.045443 0
-0.420115 -0.049467 0
-0.421088 -0.049582 0
-0.419136 -0.049352 0
-0.486966 -0.057339 0
-0.474559 -0.055878 0
-0.494094 -0.058178 0
-0.393149 -0.046292 0
-0.407497 -0.047981 0
-0.374097 -0.044049 0
-0.317355 -0.037368 0
-0.350014 -0.041213 0
-0.283221 -0.033348 0
-0.393149 -0.046292 0
-0.407497 -0.047981 0
-0.374097 -0.044049 0
+0.000000 +0.000000 0
+0.000000 +0.000000 0
+0.000000 +0.000000 0
-0.134409 -0.015826 0
-0.068521 -0.008068 0
-0.195030 -0.022964 0
-0.179790 -0.021170 0
-0.193334 -0.022764 0
-0.166070 -0.019554 0
-0.148611 -0.017498 0
-0.150476 -0.017718 0
-0.146600 -0.017262 0
-0.170658 -0.020094 0
-0.157627 -0.018560 0
-0.183522 -0.021609 0
-0.201837 -0.023766 0
-0.199116 -0.023445 0
-0.204361 -0.024063 0
-0.184827 -0.021763 0
-0.210605 -0.024798 0
-0.157150 -0.018504 0
-0.107098 -0.012610 0
-0.114999 -0.013541 0
-0.109464 -0.012889 0
-0.162061 -0.019082 0
-0.139270 -0.016399 0
-0.186516 -0.021962 0
-0.239789 -0.028234 0
-0.228668 -0.026925 0
-0.240411 -0.028308 0
-0.218526 -0.025731 0
-0.212616 -0.025035 0
-0.224453 -0.026429 0
-0.142545 -0.016784 0
-0.147412 -0.017357 0
-0.137662 -0.016209 0
-0.132603 -0.015614 0
-0.138510 -0.016309 0
-0.126667 -0.014915 0
-0.203302 -0.023938 0
-0.199813 -0.023527 0
-0.206806 -0.024351 0
-0.295524 -0.034797 0
-0.263631 -0.031042 0
-0.324657 -0.038227 0
-0.069031 -0.008128 0
-0.101729 -0.011978 0
-0.034959 -0.004116 0
-0.055659 -0.006554 0
-0.087498 -0.010303 0
-0.026438 -0.003113 0
-0.238641 -0.028099 0
-0.226273 -0.026643 0
-0.245832 -0.028946 0
-0.134409 -0.015826 0
-0.195030 -0.022964 0
-0.068521 -0.008068 0
+0.000000 +0.000000 0
+0.000000 +0.000000 0
+0.000000 +0.000000 0
+0.000000 +0.000000 0
+0.000000 +0.000000 0
+0.000000 +0.000000 0
-0.083604 -0.009844 0
-0.077232 -0.009094 0
-0.089894 -0.010585 0
-0.083604 -0.009844 0
-0.089894 -0.010585 0
-0.077232 -0.009094 0
-0.061557 -0.007248 0
-0.066205 -0.007795 0
-0.056848 -0.006694 0
-0.061557 -0.007248 0
-0.056848 -0.006694 0
-0.066205 -0.007795 0
-0.099324 -0.011695 0
-0.082974 -0.009770 0
-0.111325 -0.013108 0
-0.099324 -0.011695 0
-0.111325 -0.013108 0
-0.082974 -0.009770 0
-0.044362 -0.005223 0
-0.053169 -0.006260 0
-0.039807 -0.004687 0
-0.044362 -0.005223 0
-0.039807 -0.004687 0
-0.053169 -0.006260 0
-0.068986 -0.008123 0
-0.069962 -0.008238 0
-0.068016 -0.008009 0
-0.105741 -0.012451 0
-0.100872 -0.011877 0
-0.110617 -0.013025 0
-0.068986 -0.008123 0
-0.069962 -0.008238 0
-0.068016 -0.008009 0
-0.044983 -0.005297 0
-0.048471 -0.005707 0
-0.041473 -0.004883 0
-0.041965 -0.004941 0
-0.056368 -0.006637 0
-0.023001 -0.002708 0
-0.179293 -0.021111 0
-0.146557 -0.017257 0
-0.213303 -0.025116 0
-0.041965 -0.004941 0
-0.056368 -0.006637 0
-0.023001 -0.002708 0
-0.009683 -0.001140 0
-0.022013 -0.002592 0
-0.002430 -0.000286 0
-0.190083 -0.022382 0
-0.275814 -0.032476 0
-0.096904 -0.011410 0
+0.000000 +0.000000 0
+0.000000 +0.000000 0
+0.000000 +0.000000 0
-0.201837 -0.023766 0
-0.199116 -0.023445 0
-0.204361 -0.024063 0
-0.179790 -0.021170 0
-0.193334 -0.022764 0
-0.166070 -0.019554 0
-0.148611 -0.017498 0
-0.150476 -0.017718 0
-0.146600 -0.017262 0
-0.170658 -0.020094 0
-0.157627 -0.018560 0
-0.183522 -0.021609 0
-0.239789 -0.028234 0
-0.228668 -0.026925 0
-0.240411 -0.028308 0
-0.184827 -0.021763 0
-0.210605 -0.024798 0
-0.157150 -0.018504 0
-0.107098 -0.012610 0
-0.114999 -0.013541 0
-0.109464 -0.012889 0
-0.162061 -0.019082 0