# vtk DataFile Version 2.0
MyTitle
ASCII
DATASET UNSTRUCTURED_GRID
POINTS 1761 double
0.000000 0.000000 0.000000
1.000000 0.000000 0.000000
1.000000 1.000000 0.000000
0.000000 1.000000 0.000000
0.420000 0.420000 0.000000
0.580000 0.420000 0.000000
0.580000 0.580000 0.000000
0.420000 0.580000 0.000000
0.358579 0.358579 0.000000
0.641421 0.358579 0.000000
0.641421 0.641421 0.000000
0.358579 0.641421 0.000000
2.000000 0.000000 0.000000
2.000000 1.000000 0.000000
1.420000 0.420000 0.000000
1.580000 0.420000 0.000000
1.580000 0.580000 0.000000
1.420000 0.580000 0.000000
1.358579 0.358579 0.000000
1.641421 0.358579 0.000000
1.641421 0.641421 0.000000
1.358579 0.641421 0.000000
3.000000 0.000000 0.000000
3.000000 1.000000 0.000000
2.420000 0.420000 0.000000
2.580000 0.420000 0.000000
2.580000 0.580000 0.000000
2.420000 0.580000 0.000000
2.358579 0.358579 0.000000
2.641421 0.358579 0.000000
2.641421 0.641421 0.000000
2.358579 0.641421 0.000000
4.000000 0.000000 0.000000
4.000000 1.000000 0.000000
3.420000 0.420000 0.000000
3.580000 0.420000 0.000000
3.580000 0.580000 0.000000
3.420000 0.580000 0.000000
3.358579 0.358579 0.000000
3.641421 0.358579 0.000000
3.641421 0.641421 0.000000
3.358579 0.641421 0.000000
1.000000 2.000000 0.000000
0.000000 2.000000 0.000000
0.420000 1.420000 0.000000
0.580000 1.420000 0.000000
0.580000 1.580000 0.000000
0.420000 1.580000 0.000000
0.358579 1.358579 0.000000
0.641421 1.358579 0.000000
0.641421 1.641421 0.000000
0.358579 1.641421 0.000000
2.000000 2.000000 0.000000
1.420000 1.420000 0.000000
1.580000 1.420000 0.000000
1.580000 1.580000 0.000000
1.420000 1.580000 0.000000
1.358579 1.358579 0.000000
1.641421 1.358579 0.000000
1.641421 1.641421 0.000000
1.358579 1.641421 0.000000
3.000000 2.000000 0.000000
2.420000 1.420000 0.000000
2.580000 1.420000 0.000000
2.580000 1.580000 0.000000
2.420000 1.580000 0.000000
2.358579 1.358579 0.000000
2.641421 1.358579 0.000000
2.641421 1.641421 0.000000
2.358579 1.641421 0.000000
4.000000 2.000000 0.000000
3.420000 1.420000 0.000000
3.580000 1.420000 0.000000
3.580000 1.580000 0.000000
3.420000 1.580000 0.000000
3.358579 1.358579 0.000000
3.641421 1.358579 0.000000
3.641421 1.641421 0.000000
3.358579 1.641421 0.000000
1.000000 3.000000 0.000000
0.000000 3.000000 0.000000
0.420000 2.420000 0.000000
0.580000 2.420000 0.000000
0.580000 2.580000 0.000000
0.420000 2.580000 0.000000
0.358579 2.358579 0.000000
0.641421 2.358579 0.000000
0.641421 2.641421 0.000000
0.358579 2.641421 0.000000
2.000000 3.000000 0.000000
1.420000 2.420000 0.000000
1.580000 2.420000 0.000000
1.580000 2.580000 0.000000
1.420000 2.580000 0.000000
1.358579 2.358579 0.000000
1.641421 2.358579 0.000000
1.641421 2.641421 0.000000
1.358579 2.641421 0.000000
3.000000 3.000000 0.000000
2.420000 2.420000 0.000000
2.580000 2.420000 0.000000
2.580000 2.580000 0.000000
2.420000 2.580000 0.000000
2.358579 2.358579 0.000000
2.641421 2.358579 0.000000
2.641421 2.641421 0.000000
2.358579 2.641421 0.000000
4.000000 3.000000 0.000000
3.420000 2.420000 0.000000
3.580000 2.420000 0.000000
3.580000 2.580000 0.000000
3.420000 2.580000 0.000000
3.358579 2.358579 0.000000
3.641421 2.358579 0.000000
3.641421 2.641421 0.000000
3.358579 2.641421 0.000000
1.000000 4.000000 0.000000
0.000000 4.000000 0.000000
0.420000 3.420000 0.000000
0.580000 3.420000 0.000000
0.580000 3.580000 0.000000
0.420000 3.580000 0.000000
0.358579 3.358579 0.000000
0.641421 3.358579 0.000000
0.641421 3.641421 0.000000
0.358579 3.641421 0.000000
2.000000 4.000000 0.000000
1.420000 3.420000 0.000000
1.580000 3.420000 0.000000
1.580000 3.580000 0.000000
1.420000 3.580000 0.000000
1.358579 3.358579 0.000000
1.641421 3.358579 0.000000
1.641421 3.641421 0.000000
1.358579 3.641421 0.000000
3.000000 4.000000 0.000000
2.420000 3.420000 0.000000
2.580000 3.420000 0.000000
2.580000 3.580000 0.000000
2.420000 3.580000 0.000000
2.358579 3.358579 0.000000
2.641421 3.358579 0.000000
2.641421 3.641421 0.000000
2.358579 3.641421 0.000000
4.000000 4.000000 0.000000
3.420000 3.420000 0.000000
3.580000 3.420000 0.000000
3.580000 3.580000 0.000000
3.420000 3.580000 0.000000
3.358579 3.358579 0.000000
3.641421 3.358579 0.000000
3.641421 3.641421 0.000000
3.358579 3.641421 0.000000
0.500000 0.000000 0.000000
0.250000 0.000000 0.000000
0.750000 0.000000 0.000000
1.000000 0.500000 0.000000
1.000000 0.250000 0.000000
1.000000 0.750000 0.000000
0.500000 1.000000 0.000000
0.750000 1.000000 0.000000
0.250000 1.000000 0.000000
0.000000 0.500000 0.000000
0.000000 0.750000 0.000000
0.000000 0.250000 0.000000
0.500000 0.420000 0.000000
0.460000 0.420000 0.000000
0.540000 0.420000 0.000000
0.580000 0.500000 0.000000
0.580000 0.460000 0.000000
0.580000 0.540000 0.000000
0.500000 0.580000 0.000000
0.540000 0.580000 0.000000
0.460000 0.580000 0.000000
0.420000 0.500000 0.000000
0.420000 0.540000 0.000000
0.420000 0.460000 0.000000
0.500000 0.300001 0.000000
0.423464 0.315225 0.000000
0.576536 0.315225 0.000000
0.699999 0.500000 0.000000
0.684775 0.423464 0.000000
0.684775 0.576536 0.000000
0.500000 0.699999 0.000000
0.576536 0.684775 0.000000
0.423464 0.684775 0.000000
0.300001 0.500000 0.000000
0.315225 0.576536 0.000000
0.315225 0.423464 0.000000
0.389290 0.389290 0.000000
0.404645 0.404645 0.000000
0.373934 0.373934 0.000000
0.610710 0.389290 0.000000
0.595355 0.404645 0.000000
0.626066 0.373934 0.000000
0.610710 0.610710 0.000000
0.595355 0.595355 0.000000
0.626066 0.626066 0.000000
0.389290 0.610710 0.000000
0.404645 0.595355 0.000000
0.373934 0.626066 0.000000
0.179290 0.179290 0.000000
0.268934 0.268934 0.000000
0.089645 0.089645 0.000000
0.820710 0.179290 0.000000
0.731066 0.268934 0.000000
0.910355 0.089645 0.000000
0.820710 0.820710 0.000000
0.731066 0.731066 0.000000
0.910355 0.910355 0.000000
0.179290 0.820710 0.000000
0.268934 0.731066 0.000000
0.089645 0.910355 0.000000
1.500000 0.000000 0.000000
1.250000 0.000000 0.000000
1.750000 0.000000 0.000000
2.000000 0.500000 0.000000
2.000000 0.250000 0.000000
2.000000 0.750000 0.000000
1.500000 1.000000 0.000000
1.750000 1.000000 0.000000
1.250000 1.000000 0.000000
1.500000 0.420000 0.000000
1.460000 0.420000 0.000000
1.540000 0.420000 0.000000
1.580000 0.500000 0.000000
1.580000 0.460000 0.000000
1.580000 0.540000 0.000000
1.500000 0.580000 0.000000
1.540000 0.580000 0.000000
1.460000 0.580000 0.000000
1.420000 0.500000 0.000000
1.420000 0.540000 0.000000
1.420000 0.460000 0.000000
1.500000 0.300001 0.000000
1.423464 0.315225 0.000000
1.576536 0.315225 0.000000
1.699999 0.500000 0.000000
1.684775 0.423464 0.000000
1.684775 0.576536 0.000000
1.500000 0.699999 0.000000
1.576536 0.684775 0.000000
1.423464 0.684775 0.000000
1.300001 0.500000 0.000000
1.315225 0.576536 0.000000
1.315225 0.423464 0.000000
1.389290 0.389290 0.000000
1.404645 0.404645 0.000000
1.373934 0.373934 0.000000
1.610710 0.389290 0.000000
1.595355 0.404645 0.000000
1.626066 0.373934 0.000000
1.610710 0.610710 0.000000
1.595355 0.595355 0.000000
1.626066 0.626066 0.000000
1.389290 0.610710 0.000000
1.404645 0.595355 0.000000
1.373934 0.626066 0.000000
1.179290 0.179290 0.000000
1.268934 0.268934 0.000000
1.089645 0.089645 0.000000
1.820710 0.179290 0.000000
1.731066 0.268934 0.000000
1.910355 0.089645 0.000000
1.820710 0.820710 0.000000
1.731066 0.731066 0.000000
1.910355 0.910355 0.000000
1.179290 0.820710 0.000000
1.268934 0.731066 0.000000
1.089645 0.910355 0.000000
2.500000 0.000000 0.000000
2.250000 0.000000 0.000000
2.750000 0.000000 0.000000
3.000000 0.500000 0.000000
3.000000 0.250000 0.000000
3.000000 0.750000 0.000000
2.500000 1.000000 0.000000
2.750000 1.000000 0.000000
2.250000 1.000000 0.000000
2.500000 0.420000 0.000000
2.460000 0.420000 0.000000
2.540000 0.420000 0.000000
2.580000 0.500000 0.000000
2.580000 0.460000 0.000000
2.580000 0.540000 0.000000
2.500000 0.580000 0.000000
2.540000 0.580000 0.000000
2.460000 0.580000 0.000000
2.420000 0.500000 0.000000
2.420000 0.540000 0.000000
2.420000 0.460000 0.000000
2.500000 0.300001 0.000000
2.423464 0.315225 0.000000
2.576536 0.315225 0.000000
2.699999 0.500000 0.000000
2.684775 0.423464 0.000000
2.684775 0.576536 0.000000
2.500000 0.699999 0.000000
2.576536 0.684775 0.000000
2.423464 0.684775 0.000000
2.300001 0.500000 0.000000
2.315225 0.576536 0.000000
2.315225 0.423464 0.000000
2.389289 0.389289 0.000000
2.404645 0.404645 0.000000
2.373934 0.373934 0.000000
2.610711 0.389289 0.000000
2.595355 0.404645 0.000000
2.626066 0.373934 0.000000
2.610711 0.610711 0.000000
2.595355 0.595355 0.000000
2.626066 0.626066 0.000000
2.389289 0.610711 0.000000
2.404645 0.595355 0.000000
2.373934 0.626066 0.000000
2.179290 0.179290 0.000000
2.268934 0.268934 0.000000
2.089645 0.089645 0.000000
2.820710 0.179290 0.000000
2.731066 0.268934 0.000000
2.910355 0.089645 0.000000
2.820710 0.820710 0.000000
2.731066 0.731066 0.000000
2.910355 0.910355 0.000000
2.179290 0.820710 0.000000
2.268934 0.731066 0.000000
2.089645 0.910355 0.000000
3.500000 0.000000 0.000000
3.250000 0.000000 0.000000
3.750000 0.000000 0.000000
4.000000 0.500000 0.000000
4.000000 0.250000 0.000000
4.000000 0.750000 0.000000
3.500000 1.000000 0.000000
3.750000 1.000000 0.000000
3.250000 1.000000 0.000000
3.500000 0.420000 0.000000
3.460000 0.420000 0.000000
3.540000 0.420000 0.000000
3.580000 0.500000 0.000000
3.580000 0.460000 0.000000
3.580000 0.540000 0.000000
3.500000 0.580000 0.000000
3.540000 0.580000 0.000000
3.460000 0.580000 0.000000
3.420000 0.500000 0.000000
3.420000 0.540000 0.000000
3.420000 0.460000 0.000000
3.500000 0.300001 0.000000
3.423464 0.315225 0.000000
3.576536 0.315225 0.000000
3.699999 0.500000 0.000000
3.684775 0.423464 0.000000
3.684775 0.576536 0.000000
3.500000 0.699999 0.000000
3.576536 0.684775 0.000000
3.423464 0.684775 0.000000
3.300001 0.500000 0.000000
3.315225 0.576536 0.000000
3.315225 0.423464 0.000000
3.389289 0.389289 0.000000
3.404645 0.404645 0.000000
3.373934 0.373934 0.000000
3.610711 0.389289 0.000000
3.595355 0.404645 0.000000
3.626066 0.373934 0.000000
3.610711 0.610711 0.000000
[...]
POINT_DATA 1761
VECTORS sol double
+0.000000 +0.000000 0
+0.000000 +0.000000 0
-0.471790 +0.008103 0
+0.000000 +0.000000 0
-0.132191 +0.002270 0
-0.173871 +0.001891 0
-0.231506 +0.003976 0
-0.176245 +0.004122 0
-0.098488 +0.001691 0
-0.162508 +0.000959 0
-0.272051 +0.004672 0
-0.166478 +0.004691 0
+0.000000 +0.000000 0
-0.246883 -0.075810 0
-0.243045 -0.019351 0
-0.226186 -0.026593 0
-0.297389 -0.033077 0
-0.320722 -0.023420 0
-0.214046 -0.014867 0
-0.188561 -0.025967 0
-0.308840 -0.039023 0
-0.354133 -0.020532 0
+0.000000 +0.000000 0
+0.122645 -0.115314 0
-0.059631 -0.061173 0
-0.028232 -0.063950 0
-0.029035 -0.083980 0
-0.071071 -0.080065 0
-0.064471 -0.051731 0
-0.016413 -0.055899 0
-0.011360 -0.091699 0
-0.091964 -0.084051 0
+0.000000 +0.000000 0
+0.000000 +0.000000 0
+0.040942 -0.042709 0
+0.034364 -0.032310 0
+0.050073 -0.042866 0
+0.060181 -0.056584 0
+0.035125 -0.040074 0
+0.025603 -0.024072 0
+0.050397 -0.040336 0
+0.070722 -0.066494 0
-0.420329 +0.087269 0
+0.000000 +0.000000 0
-0.294017 +0.028574 0
-0.383401 +0.035513 0
-0.380125 +0.044713 0
-0.292222 +0.035496 0
-0.254223 +0.022909 0
-0.411799 +0.033687 0
-0.404885 +0.051281 0
-0.251842 +0.033531 0
-0.000000 +0.000000 0
-0.472618 +0.008117 0
-0.415161 -0.008625 0
-0.386217 +0.006633 0
-0.449299 +0.023472 0
-0.493881 +0.008482 0
-0.396585 -0.020806 0
-0.341915 +0.005872 0
-0.456423 +0.035455 0
+0.420329 -0.087269 0
+0.046701 -0.104517 0
+0.122860 -0.115516 0
+0.178022 -0.106772 0
+0.100400 -0.094398 0
-0.004219 -0.102268 0
+0.128388 -0.120713 0
+0.225965 -0.106222 0
+0.088883 -0.083570 0
+0.000000 +0.000000 0
+0.212077 -0.088121 0
+0.167845 -0.067317 0
+0.194395 -0.065535 0
+0.247196 -0.085531 0
+0.210469 -0.095508 0
+0.138142 -0.058554 0
+0.178957 -0.055911 0
+0.277502 -0.090396 0
-0.122645 +0.115314 0
+0.000000 +0.000000 0
-0.194395 +0.065535 0
-0.247196 +0.085531 0
-0.212077 +0.088121 0
-0.167845 +0.067317 0
-0.178957 +0.055911 0
-0.277502 +0.090396 0
-0.210469 +0.095508 0
-0.138142 +0.058554 0
+0.246883 +0.075810 0
-0.178022 +0.106772 0
-0.100400 +0.094398 0
-0.046701 +0.104517 0
-0.122860 +0.115516 0
-0.225965 +0.106222 0
-0.088883 +0.083570 0
+0.004219 +0.102268 0
-0.128388 +0.120713 0
+0.471790 -0.008103 0
+0.386217 -0.006633 0
+0.449299 -0.023472 0
+0.472618 -0.008117 0
+0.415161 +0.008625 0
+0.341915 -0.005872 0
+0.456423 -0.035455 0
+0.493881 -0.008482 0
+0.396585 +0.020806 0
+0.000000 +0.000000 0
+0.380125 -0.044713 0
+0.292222 -0.035496 0
+0.294017 -0.028574 0
+0.383401 -0.035513 0
+0.404885 -0.051281 0
+0.251842 -0.033531 0
+0.254223 -0.022909 0
+0.411799 -0.033687 0
+0.000000 +0.000000 0
+0.000000 +0.000000 0
-0.050073 +0.042866 0
-0.060181 +0.056584 0
-0.040942 +0.042709 0
-0.034364 +0.032310 0
-0.050397 +0.040336 0
-0.070722 +0.066494 0
-0.035125 +0.040074 0
-0.025603 +0.024072 0
+0.000000 +0.000000 0
+0.029035 +0.083980 0
+0.071071 +0.080065 0
+0.059631 +0.061173 0
+0.028232 +0.063950 0
+0.011360 +0.091699 0
+0.091964 +0.084051 0
+0.064471 +0.051731 0
+0.016413 +0.055899 0
+0.000000 +0.000000 0
+0.297389 +0.033077 0
+0.320722 +0.023420 0
+0.243045 +0.019351 0
+0.226186 +0.026593 0
+0.308840 +0.039023 0
+0.354133 +0.020532 0
+0.214046 +0.014867 0
+0.188561 +0.025967 0
+0.000000 +0.000000 0
+0.231506 -0.003976 0
+0.176245 -0.004122 0
+0.132191 -0.002270 0
+0.173871 -0.001891 0
+0.272051 -0.004672 0
+0.166478 -0.004691 0
+0.098488 -0.001691 0
+0.162508 -0.000959 0
+0.000000 +0.000000 0
+0.000000 +0.000000 0
+0.000000 +0.000000 0
-0.283954 -0.004570 0
-0.148605 -0.003497 0
-0.393851 -0.001021 0
-0.304424 +0.014675 0
-0.410719 +0.014839 0
-0.161711 +0.008826 0
+0.000000 +0.000000 0
+0.000000 +0.000000 0
+0.000000 +0.000000 0
-0.153900 +0.002203 0
-0.143242 +0.002266 0
-0.164120 +0.002079 0
-0.203518 +0.002802 0
-0.188886 +0.002315 0
-0.217729 +0.003355 0
-0.205021 +0.004215 0
-0.218561 +0.004138 0
-0.190898 +0.004207 0
-0.154852 +0.003099 0
-0.165722 +0.003585 0
-0.143663 +0.002662 0
-0.112051 +0.001227 0
-0.101866 +0.001438 0
-0.131986 +0.001071 0
-0.234234 +0.001718 0
-0.198237 +0.001108 0
-0.260789 +0.003059 0
-0.239229 +0.006414 0
-0.263865 +0.005952 0
-0.203212 +0.005786 0
-0.113562 +0.002648 0
-0.134577 +0.003507 0
-0.102541 +0.002073 0
-0.115065 +0.001976 0
-0.123509 +0.002121 0
-0.106528 +0.001830 0
-0.168698 +0.001424 0
-0.171475 +0.001656 0
-0.165897 +0.001185 0
-0.251615 +0.004321 0
-0.241528 +0.004148 0
-0.261781 +0.004496 0
-0.171890 +0.004425 0
-0.174268 +0.004282 0
-0.169503 +0.004576 0
-0.025696 +0.000441 0
-0.057685 +0.000991 0
-0.006529 +0.000112 0
-0.097867 -0.000954 0
-0.134702 -0.000192 0
-0.052321 -0.000930 0
-0.384764 +0.006608 0
-0.329704 +0.005662 0
-0.431989 +0.007419 0
-0.103575 +0.004413 0
-0.140131 +0.004912 0
-0.056282 +0.002795 0
+0.000000 +0.000000 0
+0.000000 +0.000000 0
+0.000000 +0.000000 0
-0.174548 -0.053598 0
-0.094384 -0.028982 0
-0.227490 -0.069855 0
-0.437767 -0.026270 0
-0.355244 -0.050602 0
-0.478721 -0.006042 0
-0.235642 -0.022897 0
-0.239612 -0.021102 0
-0.231155 -0.024730 0
-0.263257 -0.030188 0
-0.245057 -0.028473 0
-0.280713 -0.031725 0
-0.310401 -0.028144 0
-0.304213 -0.030588 0
-0.315905 -0.025753 0
-0.283343 -0.021710 0
-0.302419 -0.022650 0
-0.263529 -0.020605 0
-0.172603 -0.017367 0
-0.186148 -0.015560 0
-0.174218 -0.020779 0
-0.242468 -0.036935 0
-0.212586 -0.031718 0
-0.274946 -0.039596 0
-0.358081 -0.030082 0
-0.337388 -0.035415 0
-0.363894 -0.024764 0
-0.291743 -0.015942 0
-0.327926 -0.017557 0
-0.251039 -0.015106 0
-0.228911 -0.017065 0
-0.236106 -0.018190 0
-0.221642 -0.015933 0
-0.207390 -0.026374 0
-0.216782 -0.026520 0
-0.197914 -0.026232 0
-0.303558 -0.036006 0
-0.300657 -0.034528 0
-0.306491 -0.037489 0
-0.337516 -0.022056 0
-0.329179 -0.022767 0
-0.345907 -0.021336 0
-0.111313 -0.005083 0
-0.164888 -0.009461 0
-0.055737 -0.001979 0
-0.084148 -0.017507 0
-0.135057 -0.022768 0
-0.038931 -0.009837 0
-0.304918 -0.057412 0
-0.312661 -0.048066 0
-0.282337 -0.066619 0
-0.431725 -0.007812 0
-0.396148 -0.014741 0
-0.456417 -0.000082 0
+0.000000 +0.000000 0
+0.000000 +0.000000 0
+0.000000 +0.000000 0
+0.037105 -0.071229 0
+0.015126 -0.037490 0
+0.072131 -0.097768 0
-0.017496 -0.113527 0
+0.069021 -0.119764 0
-0.127991 -0.097784 0
-0.043443 -0.062801 0
-0.051433 -0.062044 0
-0.035700 -0.063438 0
-0.029614 -0.074389 0
-0.029149 -0.069267 0
-0.029582 -0.079296 0
-0.049387 -0.082335 0
-0.039034 -0.083237 0
-0.060082 -0.081275 0
-0.066442 -0.071051 0
-0.069038 -0.075673 0
-0.063291 -0.066211 0
-0.034134 -0.046115 0
-0.047082 -0.047175 0
-0.024497 -0.049122 0
-0.005576 -0.075356 0
-0.010192 -0.065110 0
-0.004861 -0.084631 0
-0.047705 -0.094522 0
-0.025919 -0.094935 0
-0.072428 -0.090426 0
-0.096674 -0.067205 0
-0.100739 -0.075765 0
-0.082177 -0.058794 0
-0.062413 -0.056474 0
-0.061166 -0.058829 0
-0.063693 -0.054099 0
-0.022081 -0.060007 0
-0.025063 -0.062007 0
-0.019087 -0.057987 0
-0.020492 -0.087877 0
-0.024864 -0.085948 0
-0.016074 -0.089816 0
-0.081260 -0.082159 0
-0.076078 -0.081155 0
-0.086456 -0.083172 0
-0.051772 -0.024229 0
-0.062377 -0.037858 0
-0.030705 -0.011545 0
+0.001757 -0.028558 0
-0.004905 -0.042677 0
+0.003081 -0.014190 0
+0.053061 -0.108463 0
+0.019264 -0.100988 0
+0.087870 -0.113087 0
-0.164180 -0.086632 0
-0.126367 -0.086745 0
-0.204321 -0.082817 0
+0.000000 +0.000000 0
+0.000000 +0.000000 0
+0.000000 +0.000000 0
+0.000000 +0.000000 0
+0.000000 +0.000000 0
+0.000000 +0.000000 0
+0.115847 -0.072581 0
+0.065542 -0.038356 0
+0.137022 -0.098883 0
+0.038299 -0.037701 0
+0.039792 -0.040257 0
+0.036481 -0.035048 0
+0.041963 -0.037764 0
+0.038102 -0.035076 0
+0.045953 -0.040363 0
+0.055992 -0.049977 0
+0.053234 -0.046479 0
+0.058309 -0.053346 0
+0.050210 -0.049877 0
+0.055107 -0.053291 0
+0.045494 -0.046346 0
+0.026418 -0.027522 0
+0.029664 -0.032491 0
+0.025270 -0.024958 0
+0.032232 -0.027622 0
+0.027867 -0.025003 0
+0.039630 -0.032662 0
+0.071147 -0.058026 0
+0.061749 -0.049225 0
+0.074111 -0.064219 0
+0.051933 -0.057696 0
+0.062277 -0.064016 0
+0.042610 -0.048896 0
+0.038131 -0.041517 0
+0.039568 -0.042161 0
+0.036658 -0.040870 0
+0.029912 -0.028124 0
+0.032107 -0.030188 0
+0.027693 -0.026037 0
+0.050408 -0.041728 0
+0.050311 -0.042345 0
+0.050532 -0.041108 0
+0.065409 -0.061499 0
+0.062787 -0.059034 0
+0.068052 -0.063984 0
+0.015203 -0.024429 0
+0.025281 -0.033408 0
+0.006497 -0.013141 0
+0.006680 -0.006281 0
+0.014996 -0.014099 0
+0.001697 -0.001596 0
+0.037163 -0.024806 0
+0.046164 -0.033766 0
+0.021735 -0.013403 0
+0.100022 -0.094043 0
+0.085709 -0.080585 0
+0.112298 -0.105586 0
-0.510977 +0.042564 0
-0.509626 +0.023016 0
-0.478103 +0.064914 0
-0.297176 +0.061700 0
-0.387312 +0.080414 0
-0.160692 +0.033363 0
+0.000000 +0.000000 0
+0.000000 +0.000000 0
+0.000000 +0.000000 0
-0.340926 +0.032431 0
-0.317981 +0.030592 0
-0.362749 +0.034074 0
-0.382931 +0.040051 0
-0.383461 +0.037764 0
-0.381810 +0.042370 0
-0.338464 +0.040523 0
-0.359898 +0.042727 0
-0.315869 +0.038106 0
-0.294022 +0.031994 0
-0.293340 +0.033738 0
-0.294250 +0.030270 0
-0.337141 +0.026742 0
-0.293111 +0.024451 0
-0.378169 +0.029683 0
-0.436585 +0.043730 0
-0.431093 +0.038418 0
-0.426678 +0.048537 0
-0.331520 +0.046793 0
-0.370971 +0.050689 0
-0.289222 +0.040337 0
-0.216654 +0.024052 0
-0.225724 +0.027648 0
-0.226789 +0.022652 0
-0.274404 +0.025709 0
-0.284305 +0.027128 0
-0.264412 +0.024280 0
-0.397866 +0.034686 0
-0.390758 +0.035131 0
-0.405009 +0.034233 0
-0.392869 +0.047966 0
-0.386658 +0.046332 0
-0.399124 +0.049607 0
-0.272253 +0.034611 0
-0.282310 +0.035091 0
-0.262116 +0.034133 0
-0.126468 +0.009166 0
-0.191524 +0.015582 0
-0.062098 +0.004002 0
-0.464716 +0.023208 0
-0.442829 +0.029149 0
-0.473580 +0.016054 0
-0.440662 +0.070217 0
-0.428443 +0.060794 0
-0.437190 +0.078977 0
-0.125212 +0.021103 0
-0.189415 +0.028340 0
-0.061695 +0.011566 0
-0.174548 -0.053598 0
-0.227490 -0.069855 0
-0.094384 -0.028982 0
-0.297176 +0.061700 0
-0.160692 +0.033363 0
-0.387312 +0.080414 0
-0.446305 +0.000073 0
-0.460093 +0.004183 0
-0.431296 -0.004203 0
-0.402427 -0.001294 0
-0.409241 -0.005040 0
-0.394734 +0.002603 0
-0.420206 +0.015422 0
-0.403783 +0.011111 0
-0.435389 +0.019546 0
-0.462756 +0.015540 0
-0.456453 +0.019450 0
-0.468150 +0.011759 0
-0.455993 -0.009753 0
-0.478199 -0.001032 0
-0.427287 -0.016750 0
-0.345560 -0.015531 0
-0.367159 -0.020451 0
-0.335769 -0.006143 0
-0.392071 +0.028199 0
-0.361574 +0.018120 0
-0.425133 +0.034058 0
-0.494094 +0.026070 0
-0.479481 +0.032323 0
-0.498230 +0.017802 0
-0.483767 +0.008308 0
-0.478409 +0.008216 0
-0.489135 +0.008401 0
-0.406071 -0.014722 0
-0.410694 -0.011682 0
-0.401399 -0.017784 0
-0.364578 +0.006261 0
-0.375583 +0.006450 0
-0.353502 +0.006071 0
-0.453081 +0.029477 0
-0.451289 +0.026486 0
-0.454869 +0.032490 0
-0.511677 +0.008788 0
-0.509273 +0.008746 0
-0.498008 +0.008553 0
-0.327811 -0.052659 0
-0.364054 -0.037396 0
-0.288154 -0.065412 0
-0.183664 +0.003154 0
-0.266788 +0.004582 0
-0.094097 +0.001616 0
-0.454108 +0.066088 0
-0.458629 +0.051525 0
-0.440606 +0.077928 0
+0.264129 -0.118363 0
+0.187906 -0.121805 0
+0.344625 -0.105901 0
+0.297176 -0.061700 0
+0.387312 -0.080414 0
+0.160692 -0.033363 0
+0.086518 -0.110552 0
+0.067001 -0.107660 0
+0.105154 -0.113173 0
+0.149799 -0.111639 0
+0.136149 -0.113706 0
+0.163775 -0.109322 0
+0.141121 -0.101120 0
+0.160078 -0.104085 0
+0.121194 -0.097885 0
+0.072728 -0.099946 0
+0.086385 -0.097287 0
+0.059490 -0.102357 0
+0.050207 -0.114850 0
+0.017471 -0.109091 0
+0.088386 -0.118666 0
+0.196774 -0.117368 0
+0.165444 -0.119990 0
+0.218249 -0.112539 0
+0.185335 -0.091681 0
+0.214488 -0.098740 0
+0.140273 -0.086074 0
+0.006418 -0.088609 0
+0.041006 -0.084369 0
-0.008526 -0.094910 0
+0.021254 -0.103443 0
+0.033959 -0.104001 0
+0.008453 -0.102877 0
+0.125758 -0.118241 0
+0.124366 -0.116931 0
+0.127154 -0.119553 0
+0.202089 -0.106549 0
+0.190120 -0.106683 0
+0.214140 -0.106410 0
+0.094775 -0.089109 0
+0.097635 -0.091799 0
+0.091895 -0.086402 0
-0.141287 -0.091385 0
-0.074974 -0.097415 0
-0.198504 -0.084025 0
+0.133014 -0.125063 0
+0.132389 -0.124475 0
+0.129461 -0.121722 0
+0.344553 -0.099729 0
+0.288836 -0.103663 0
+0.387950 -0.094097 0
+0.047745 -0.044891 0
+0.069353 -0.065208 0
+0.024461 -0.022999 0
+0.000000 +0.000000 0
+0.000000 +0.000000 0
+0.000000 +0.000000 0
+0.297176 -0.061700 0
+0.160692 -0.033363 0
+0.387312 -0.080414 0
+0.191897 -0.078193 0
+0.202497 -0.083282 0
+0.180317 -0.072864 0
+0.181133 -0.066658 0
+0.174481 -0.067047 0
+0.187779 -0.066152 0
+0.222863 -0.076020 0
+0.209108 -0.070889 0
+0.235569 -0.080904 0
+0.229623 -0.087127 0
+0.238418 -0.086401 0
+0.220839 -0.087700 0
+0.169059 -0.078355 0
+0.188415 -0.087951 0
+0.151648 -0.067890 0
+0.135324 -0.049026 0
+0.131843 -0.051807 0
+0.151050 -0.050578 0
+0.245887 -0.073088 0
+0.212625 -0.063857 0
+0.268649 -0.082109 0
+0.254284 -0.099708 0
+0.271052 -0.096325 0
+0.232581 -0.099374 0
+0.211659 -0.091864 0
+0.212017 -0.090017 0
+0.211280 -0.093721 0
+0.152921 -0.063012 0
+0.160348 -0.065191 0
+0.145440 -0.060813 0
+0.187100 -0.060759 0
+0.190908 -0.063158 0
+0.183281 -0.058341 0
+0.262301 -0.088060 0
+0.254750 -0.086837 0
+0.269885 -0.089292 0
+0.179975 -0.110643 0
+0.198834 -0.104072 0
+0.153889 -0.114221 0
+0.060056 -0.029560 0
+0.097557 -0.044436 0
+0.027551 -0.014611 0
+0.106196 -0.026942 0
+0.146726 -0.041449 0
+0.056863 -0.013049 0
+0.357999 -0.095600 0
+0.319022 -0.094394 0
+0.391367 -0.093048 0
-0.264129 +0.118363 0
-0.344625 +0.105901 0
-0.187906 +0.121805 0
-0.115847 +0.072581 0
-0.137022 +0.098883 0
-0.065542 +0.038356 0
+0.000000 +0.000000 0
+0.000000 +0.000000 0
+0.000000 +0.000000 0
-0.222863 +0.076020 0
-0.209108 +0.070889 0
-0.235569 +0.080904 0
-0.229623 +0.087127 0
-0.238418 +0.086401 0
-0.220839 +0.087700 0
-0.191897 +0.078193 0
-0.202497 +0.083282 0
-0.180317 +0.072864 0
-0.181133 +0.066658 0
-0.174481 +0.067047 0
-0.187779 +0.066152 0
-0.245887 +0.073088 0
-0.212625 +0.063857 0
-0.268649 +0.082109 0
-0.254284 +0.099708 0
-0.271052 +0.096325 0
-0.232581 +0.099374 0
-0.169059 +0.078355 0
-0.188415 +0.087951 0
-0.151648 +0.067890 0
-0.135324 +0.049026 0
-0.131843 +0.051807 0
-0.151050 +0.050578 0
-0.187100 +0.060759 0
-0.190908 +0.063158 0
-0.183281 +0.058341 0
-0.262301 +0.088060 0
-0.254750 +0.086837 0
-0.269885 +0.089292 0
-0.211659 +0.091864 0
-0.212017 +0.090017 0
-0.211280 +0.093721 0
-0.152921 +0.063012 0
-0.160348 +0.065191 0
-0.145440 +0.060813 0
-0.106196 +0.026942 0
-0.146726 +0.041449 0
-0.056863 +0.013049 0
-0.357999 +0.095600 0
-0.319022 +0.094394 0
-0.391367 +0.093048 0
-0.179975 +0.110643 0
-0.198834 +0.104072 0
-0.153889 +0.114221 0
-0.060056 +0.029560 0
-0.097557 +0.044436 0
-0.027551 +0.014611 0
+0.174548 +0.053598 0
+0.094384 +0.028982 0
+0.227490 +0.069855 0
+0.017496 +0.113527 0
+0.127991 +0.097784 0
-0.069021 +0.119764 0
-0.141121 +0.101120 0
-0.160078 +0.104085 0
-0.121194 +0.097885 0
-0.072728 +0.099946 0
-0.086385 +0.097287 0
-0.059490 +0.102357 0
-0.086518 +0.110552 0
-0.067001 +0.107660 0
-0.105154 +0.113173 0
-0.149799 +0.111639 0
-0.136149 +0.113706 0
-0.163775 +0.109322 0
-0.185335 +0.091681 0
-0.214488 +0.098740 0
-0.140273 +0.086074 0
-0.006418 +0.088609 0
-0.041006 +0.084369 0
+0.008526 +0.094910 0
-0.050207 +0.114850 0
-0.017471 +0.109091 0
-0.088386 +0.118666 0
-0.196774 +0.117368 0
-0.165444 +0.119990 0
-0.218249 +0.112539 0
-0.202089 +0.106549 0
-0.190120 +0.106683 0
-0.214140 +0.106410 0
-0.094775 +0.089109 0
-0.097635 +0.091799 0
-0.091895 +0.086402 0
-0.021254 +0.103443 0
-0.033959 +0.104001 0
-0.008453 +0.102877 0
-0.125758 +0.118241 0
-0.124366 +0.116931 0
-0.127154 +0.119553 0
-0.344553 +0.099729 0
-0.288836 +0.103663 0
-0.387950 +0.094097 0
-0.047745 +0.044891 0
-0.069353 +0.065208 0
-0.024461 +0.022999 0
+0.141287 +0.091385 0
+0.074974 +0.097415 0
+0.198504 +0.084025 0
-0.133014 +0.125063 0
-0.132389 +0.124475 0
-0.129461 +0.121722 0
+0.510977 -0.042564 0
+0.478103 -0.064914 0
+0.509626 -0.023016 0
+0.437767 +0.026270 0
+0.478721 +0.006042 0
+0.355244 +0.050602 0
+0.420206 -0.015422 0
+0.403783 -0.011111 0
+0.435389 -0.019546 0
+0.462756 -0.015540 0
+0.456453 -0.019450 0
+0.468150 -0.011759 0
+0.446305 -0.000073 0
+0.460093 -0.004183 0
+0.431296 +0.004203 0
+0.402427 +0.001294 0
+0.409241 +0.005040 0
+0.394734 -0.002603 0
+0.392071 -0.028199 0
+0.361574 -0.018120 0
+0.425133 -0.034058 0
+0.494094 -0.026070 0
+0.479481 -0.032323 0
+0.498230 -0.017802 0
+0.455993 +0.009753 0
+0.478199 +0.001032 0
+0.427287 +0.016750 0
+0.345560 +0.015531 0
+0.367159 +0.020451 0
+0.335769 +0.006143 0
+0.364578 -0.006261 0
+0.375583 -0.006450 0
+0.353502 -0.006071 0
+0.453081 -0.029477 0
+0.451289 -0.026486 0
+0.454869 -0.032490 0
+0.483767 -0.008308 0
+0.478409 -0.008216 0
+0.489135 -0.008401 0
+0.406071 +0.014722 0
+0.410694 +0.011682 0
+0.401399 +0.017784 0
+0.183664 -0.003154 0
+0.266788 -0.004582 0
+0.094097 -0.001616 0
+0.454108 -0.066088 0
+0.458629 -0.051525 0
+0.440606 -0.077928 0
+0.511677 -0.008788 0
+0.509273 -0.008746 0
+0.498008 -0.008553 0
+0.327811 +0.052659 0
+0.364054 +0.037396 0
+0.288154 +0.065412 0
+0.000000 +0.000000 0
+0.000000 +0.000000 0
+0.000000 +0.000000 0
+0.304424 -0.014675 0
+0.161711 -0.008826 0
+0.410719 -0.014839 0
+0.338464 -0.040523 0
+0.359898 -0.042727 0
+0.315869 -0.038106 0
+0.294022 -0.031994 0
+0.293340 -0.033738 0
+0.294250 -0.030270 0
+0.340926 -0.032431 0
+0.317981 -0.030592 0
+0.362749 -0.034074 0
+0.382931 -0.040051 0
+0.383461 -0.037764 0
+0.381810 -0.042370 0
+0.331520 -0.046793 0
+0.370971 -0.050689 0
+0.289222 -0.040337 0
+0.216654 -0.024052 0
+0.225724 -0.027648 0
+0.226789 -0.022652 0
+0.337141 -0.026742 0
+0.293111 -0.024451 0
+0.378169 -0.029683 0
+0.436585 -0.043730 0
+0.431093 -0.038418 0
+0.426678 -0.048537 0
+0.392869 -0.047966 0
+0.386658 -0.046332 0
+0.399124 -0.049607 0
+0.272253 -0.034611 0
+0.282310 -0.035091 0
+0.262116 -0.034133 0
+0.274404 -0.025709 0
+0.284305 -0.027128 0
+0.264412 -0.024280 0
+0.397866 -0.034686 0
+0.390758 -0.035131 0
+0.405009 -0.034233 0
+0.440662 -0.070217 0
+0.428443 -0.060794 0
+0.437190 -0.078977 0
+0.125212 -0.021103 0
+0.189415 -0.028340 0
+0.061695 -0.011566 0
+0.126468 -0.009166 0
+0.191524 -0.015582 0
+0.062098 -0.004002 0
+0.464716 -0.023208 0
+0.442829 -0.029149 0
+0.473580 -0.016054 0
-0.037105 +0.071229 0
-0.072131 +0.097768 0
-0.015126 +0.037490 0
+0.000000 +0.000000 0
+0.000000 +0.000000 0
+0.000000 +0.000000 0
+0.000000 +0.000000 0
+0.000000 +0.000000 0
+0.000000 +0.000000 0
-0.055992 +0.049977 0
-0.053234 +0.046479 0
-0.058309 +0.053346 0
-0.050210 +0.049877 0
-0.055107 +0.053291 0
-0.045494 +0.046346 0
-0.038299 +0.037701 0
-0.039792 +0.040257 0
-0.036481 +0.035048 0
-0.041963 +0.037764 0
-0.038102 +0.035076 0
-0.045953 +0.040363 0
-0.071147 +0.058026 0
-0.061749 +0.049225 0
-0.074111 +0.064219 0
-0.051933 +0.057696 0
-0.062277 +0.064016 0
-0.042610 +0.048896 0
-0.026418 +0.027522 0
-0.029664 +0.032491 0
-0.025270 +0.024958 0
-0.032232 +0.027622 0
-0.027867 +0.025003 0
-0.039630 +0.032662 0
-0.050408 +0.041728 0
-0.050311 +0.042345 0
-0.050532 +0.041108 0
-0.065409 +0.061499 0
-0.062787 +0.059034 0
-0.068052 +0.063984 0
-0.038131 +0.041517 0
-0.039568 +0.042161 0
-0.036658 +0.040870 0
-0.029912 +0.028124 0
-0.032107 +0.030188 0
-0.027693 +0.026037 0
-0.037163 +0.024806 0
-0.046164 +0.033766 0
-0.021735 +0.013403 0
-0.100022 +0.094043 0
-0.085709 +0.080585 0
-0.112298 +0.105586 0
-0.015203 +0.024429 0
-0.025281 +0.033408 0
-0.006497 +0.013141 0
-0.006680 +0.006281 0
-0.014996 +0.014099 0
-0.001697 +0.001596 0
+0.174548 +0.053598 0
+0.227490 +0.069855 0
+0.094384 +0.028982 0
+0.000000 +0.000000 0
+0.000000 +0.000000 0
+0.000000 +0.000000 0
+0.049387 +0.082335 0
+0.039034 +0.083237 0
+0.060082 +0.081275 0
+0.066442 +0.071051 0
+0.069038 +0.075673 0
+0.063291 +0.066211 0
+0.043443 +0.062801 0
+0.051433 +0.062044 0
+0.035700 +0.063438 0
+0.029614 +0.074389 0
+0.029149 +0.069267 0
+0.029582 +0.079296 0
+0.047705 +0.094522 0
+0.025919 +0.094935 0
+0.072428 +0.090426 0
+0.096674 +0.067205 0
+0.100739 +0.075765 0
+0.082177 +0.058794 0
+0.034134 +0.046115 0
+0.047082 +0.047175 0
+0.024497 +0.049122 0
+0.005576 +0.075356 0