# vtk DataFile Version 2.0
MyTitle
ASCII
DATASET UNSTRUCTURED_GRID
POINTS 4253 double
1.000000 0.000000 0.000000
10.000000 0.000000 0.000000
10.000000 10.000000 0.000000
0.000000 10.000000 0.000000
0.000000 1.000000 0.000000
0.707107 0.707107 0.000000
1.029081 0.000000 0.000000
1.058162 0.000000 0.000000
1.093059 0.000000 0.000000
1.127957 0.000000 0.000000
1.169833 0.000000 0.000000
1.211710 0.000000 0.000000
1.261962 0.000000 0.000000
1.312214 0.000000 0.000000
1.372517 0.000000 0.000000
1.432819 0.000000 0.000000
1.505182 0.000000 0.000000
1.577545 0.000000 0.000000
1.664380 0.000000 0.000000
1.751216 0.000000 0.000000
1.855418 0.000000 0.000000
1.959621 0.000000 0.000000
2.084664 0.000000 0.000000
2.209707 0.000000 0.000000
2.359759 0.000000 0.000000
2.509811 0.000000 0.000000
2.689873 0.000000 0.000000
2.869935 0.000000 0.000000
3.086010 0.000000 0.000000
3.302084 0.000000 0.000000
3.561374 0.000000 0.000000
3.820663 0.000000 0.000000
4.131811 0.000000 0.000000
4.442958 0.000000 0.000000
4.816335 0.000000 0.000000
5.189712 0.000000 0.000000
5.637764 0.000000 0.000000
6.085816 0.000000 0.000000
6.623479 0.000000 0.000000
7.161141 0.000000 0.000000
7.806336 0.000000 0.000000
8.451532 0.000000 0.000000
9.225766 0.000000 0.000000
1.014541 0.000000 0.000000
1.043622 0.000000 0.000000
1.075611 0.000000 0.000000
1.110508 0.000000 0.000000
1.148895 0.000000 0.000000
1.190772 0.000000 0.000000
1.236836 0.000000 0.000000
1.287088 0.000000 0.000000
1.342365 0.000000 0.000000
1.402668 0.000000 0.000000
1.469000 0.000000 0.000000
1.541363 0.000000 0.000000
1.620963 0.000000 0.000000
1.707798 0.000000 0.000000
1.803317 0.000000 0.000000
1.907520 0.000000 0.000000
2.022143 0.000000 0.000000
2.147186 0.000000 0.000000
2.284733 0.000000 0.000000
2.434785 0.000000 0.000000
2.599842 0.000000 0.000000
2.779904 0.000000 0.000000
2.977972 0.000000 0.000000
3.194047 0.000000 0.000000
3.431729 0.000000 0.000000
3.691019 0.000000 0.000000
3.976237 0.000000 0.000000
4.287384 0.000000 0.000000
4.629646 0.000000 0.000000
5.003023 0.000000 0.000000
5.413738 0.000000 0.000000
5.861790 0.000000 0.000000
6.354647 0.000000 0.000000
6.892310 0.000000 0.000000
7.483739 0.000000 0.000000
8.128934 0.000000 0.000000
8.838649 0.000000 0.000000
9.612883 0.000000 0.000000
10.000000 0.555556 0.000000
10.000000 1.111111 0.000000
10.000000 1.666667 0.000000
10.000000 2.222222 0.000000
10.000000 2.777778 0.000000
10.000000 3.333333 0.000000
10.000000 3.888889 0.000000
10.000000 4.444444 0.000000
10.000000 5.000000 0.000000
10.000000 5.555556 0.000000
10.000000 6.111111 0.000000
10.000000 6.666667 0.000000
10.000000 7.222222 0.000000
10.000000 7.777778 0.000000
10.000000 8.333333 0.000000
10.000000 8.888889 0.000000
10.000000 9.444444 0.000000
10.000000 0.277778 0.000000
10.000000 0.833333 0.000000
10.000000 1.388889 0.000000
10.000000 1.944444 0.000000
10.000000 2.500000 0.000000
10.000000 3.055556 0.000000
10.000000 3.611111 0.000000
10.000000 4.166667 0.000000
10.000000 4.722222 0.000000
10.000000 5.277778 0.000000
10.000000 5.833333 0.000000
10.000000 6.388889 0.000000
10.000000 6.944444 0.000000
10.000000 7.500000 0.000000
10.000000 8.055556 0.000000
10.000000 8.611111 0.000000
10.000000 9.166667 0.000000
10.000000 9.722222 0.000000
9.444444 10.000000 0.000000
8.888889 10.000000 0.000000
8.333333 10.000000 0.000000
7.777778 10.000000 0.000000
7.222222 10.000000 0.000000
6.666667 10.000000 0.000000
6.111111 10.000000 0.000000
5.555556 10.000000 0.000000
5.000000 10.000000 0.000000
4.444444 10.000000 0.000000
3.888889 10.000000 0.000000
3.333333 10.000000 0.000000
2.777778 10.000000 0.000000
2.222222 10.000000 0.000000
1.666667 10.000000 0.000000
1.111111 10.000000 0.000000
0.555556 10.000000 0.000000
9.722222 10.000000 0.000000
9.166667 10.000000 0.000000
8.611111 10.000000 0.000000
8.055556 10.000000 0.000000
7.500000 10.000000 0.000000
6.944444 10.000000 0.000000
6.388889 10.000000 0.000000
5.833333 10.000000 0.000000
5.277778 10.000000 0.000000
4.722222 10.000000 0.000000
4.166667 10.000000 0.000000
3.611111 10.000000 0.000000
3.055556 10.000000 0.000000
2.500000 10.000000 0.000000
1.944444 10.000000 0.000000
1.388889 10.000000 0.000000
0.833333 10.000000 0.000000
0.277778 10.000000 0.000000
0.000000 9.225766 0.000000
0.000000 8.451532 0.000000
0.000000 7.806336 0.000000
0.000000 7.161141 0.000000
0.000000 6.623479 0.000000
0.000000 6.085816 0.000000
0.000000 5.637764 0.000000
0.000000 5.189712 0.000000
0.000000 4.816335 0.000000
0.000000 4.442958 0.000000
0.000000 4.131811 0.000000
0.000000 3.820663 0.000000
0.000000 3.561374 0.000000
0.000000 3.302084 0.000000
0.000000 3.086010 0.000000
0.000000 2.869935 0.000000
0.000000 2.689873 0.000000
0.000000 2.509811 0.000000
0.000000 2.359759 0.000000
0.000000 2.209707 0.000000
0.000000 2.084664 0.000000
0.000000 1.959621 0.000000
0.000000 1.855418 0.000000
0.000000 1.751216 0.000000
0.000000 1.664380 0.000000
0.000000 1.577545 0.000000
0.000000 1.505182 0.000000
0.000000 1.432819 0.000000
0.000000 1.372517 0.000000
0.000000 1.312214 0.000000
0.000000 1.261962 0.000000
0.000000 1.211710 0.000000
0.000000 1.169833 0.000000
0.000000 1.127957 0.000000
0.000000 1.093059 0.000000
0.000000 1.058162 0.000000
0.000000 1.029081 0.000000
0.000000 9.612883 0.000000
0.000000 8.838649 0.000000
0.000000 8.128934 0.000000
0.000000 7.483739 0.000000
0.000000 6.892310 0.000000
0.000000 6.354647 0.000000
0.000000 5.861790 0.000000
0.000000 5.413738 0.000000
0.000000 5.003023 0.000000
0.000000 4.629646 0.000000
0.000000 4.287384 0.000000
0.000000 3.976237 0.000000
0.000000 3.691019 0.000000
0.000000 3.431729 0.000000
0.000000 3.194047 0.000000
0.000000 2.977972 0.000000
0.000000 2.779904 0.000000
0.000000 2.599842 0.000000
0.000000 2.434785 0.000000
0.000000 2.284733 0.000000
0.000000 2.147186 0.000000
0.000000 2.022143 0.000000
0.000000 1.907520 0.000000
0.000000 1.803317 0.000000
0.000000 1.707798 0.000000
0.000000 1.620963 0.000000
0.000000 1.541363 0.000000
0.000000 1.469000 0.000000
0.000000 1.402668 0.000000
0.000000 1.342365 0.000000
0.000000 1.287088 0.000000
0.000000 1.236836 0.000000
0.000000 1.190772 0.000000
0.000000 1.148895 0.000000
0.000000 1.110508 0.000000
0.000000 1.075611 0.000000
0.000000 1.043622 0.000000
0.000000 1.014541 0.000000
0.043619 0.999048 0.000000
0.087156 0.996195 0.000000
0.130526 0.991445 0.000000
0.173648 0.984808 0.000000
0.216440 0.976296 0.000000
0.258819 0.965926 0.000000
0.300706 0.953717 0.000000
0.342020 0.939693 0.000000
0.382683 0.923880 0.000000
0.422618 0.906308 0.000000
0.461749 0.887011 0.000000
0.500000 0.866025 0.000000
0.537300 0.843391 0.000000
0.573576 0.819152 0.000000
0.608761 0.793353 0.000000
0.642788 0.766044 0.000000
0.675590 0.737277 0.000000
0.021815 0.999762 0.000000
0.065403 0.997859 0.000000
0.108867 0.994056 0.000000
0.152123 0.988362 0.000000
0.195090 0.980785 0.000000
0.237686 0.971342 0.000000
0.279829 0.960050 0.000000
0.321439 0.946930 0.000000
0.362438 0.932008 0.000000
0.402747 0.915311 0.000000
0.442289 0.896873 0.000000
0.480989 0.876727 0.000000
0.518773 0.854912 0.000000
0.555570 0.831470 0.000000
0.591310 0.806445 0.000000
0.625923 0.779884 0.000000
0.659346 0.751840 0.000000
0.691513 0.722364 0.000000
0.737277 0.675590 0.000000
0.766044 0.642788 0.000000
0.793353 0.608761 0.000000
0.819152 0.573576 0.000000
0.843391 0.537300 0.000000
0.866025 0.500000 0.000000
0.887011 0.461749 0.000000
0.906308 0.422618 0.000000
0.923880 0.382683 0.000000
0.939693 0.342020 0.000000
0.953717 0.300706 0.000000
0.965926 0.258819 0.000000
0.976296 0.216440 0.000000
0.984808 0.173648 0.000000
0.991445 0.130526 0.000000
0.996195 0.087156 0.000000
0.999048 0.043619 0.000000
0.722364 0.691513 0.000000
0.751840 0.659346 0.000000
0.779884 0.625923 0.000000
0.806445 0.591310 0.000000
0.831470 0.555570 0.000000
0.854912 0.518773 0.000000
0.876727 0.480989 0.000000
0.896873 0.442289 0.000000
0.915311 0.402747 0.000000
0.932008 0.362438 0.000000
0.946930 0.321439 0.000000
0.960050 0.279829 0.000000
0.971342 0.237686 0.000000
0.980785 0.195090 0.000000
0.988362 0.152123 0.000000
0.994056 0.108867 0.000000
0.997859 0.065403 0.000000
0.999762 0.021815 0.000000
0.737134 0.737134 0.000000
0.767162 0.767162 0.000000
0.803195 0.803195 0.000000
0.839228 0.839228 0.000000
0.882467 0.882467 0.000000
0.925707 0.925707 0.000000
0.977594 0.977594 0.000000
1.029481 1.029481 0.000000
1.091746 1.091746 0.000000
1.154011 1.154011 0.000000
1.228729 1.228729 0.000000
1.303447 1.303447 0.000000
1.393109 1.393109 0.000000
1.482770 1.482770 0.000000
1.590364 1.590364 0.000000
1.697957 1.697957 0.000000
1.827070 1.827070 0.000000
1.956183 1.956183 0.000000
2.111118 2.111118 0.000000
2.266053 2.266053 0.000000
2.451975 2.451975 0.000000
2.637897 2.637897 0.000000
2.861003 2.861003 0.000000
3.084109 3.084109 0.000000
3.351837 3.351837 0.000000
3.619565 3.619565 0.000000
3.940838 3.940838 0.000000
4.262111 4.262111 0.000000
4.647639 4.647639 0.000000
5.033167 5.033167 0.000000
5.495801 5.495801 0.000000
5.958434 5.958434 0.000000
6.513594 6.513594 0.000000
7.068754 7.068754 0.000000
7.734947 7.734947 0.000000
8.401139 8.401139 0.000000
9.200569 9.200569 0.000000
0.722121 0.722121 0.000000
0.752148 0.752148 0.000000
0.785178 0.785178 0.000000
0.821211 0.821211 0.000000
0.860847 0.860847 0.000000
0.904087 0.904087 0.000000
0.951650 0.951650 0.000000
1.003538 1.003538 0.000000
1.060614 1.060614 0.000000
1.122879 1.122879 0.000000
1.191370 1.191370 0.000000
1.266088 1.266088 0.000000
1.348278 1.348278 0.000000
1.437939 1.437939 0.000000
1.536567 1.536567 0.000000
1.644161 1.644161 0.000000
1.762514 1.762514 0.000000
1.891626 1.891626 0.000000
2.033650 2.033650 0.000000
2.188585 2.188585 0.000000
2.359014 2.359014 0.000000
2.544936 2.544936 0.000000
2.749450 2.749450 0.000000
2.972556 2.972556 0.000000
3.217973 3.217973 0.000000
3.485701 3.485701 0.000000
3.780201 3.780201 0.000000
4.101475 4.101475 0.000000
4.454875 4.454875 0.000000
4.840403 4.840403 0.000000
5.264484 5.264484 0.000000
[...]
POINT_DATA 4253
VECTORS sol double
+12.000000 +0.000000 0
+0.120000 +0.000000 0
+0.042426 +0.042426 0
+0.000000 +0.120000 0
+0.000000 +12.000000 0
+8.485281 +8.485281 0
+11.331361 +0.000000 0
+10.717089 +0.000000 0
+10.043701 +0.000000 0
+9.431841 +0.000000 0
+8.768661 +0.000000 0
+8.173045 +0.000000 0
+7.535094 +0.000000 0
+6.969023 +0.000000 0
+6.370098 +0.000000 0
+5.845190 +0.000000 0
+5.296674 +0.000000 0
+4.821896 +0.000000 0
+4.331877 +0.000000 0
+3.912928 +0.000000 0
+3.485760 +0.000000 0
+3.124907 +0.000000 0
+2.761271 +0.000000 0
+2.457603 +0.000000 0
+2.154993 +0.000000 0
+1.905019 +0.000000 0
+1.658508 +0.000000 0
+1.456925 +0.000000 0
+1.260047 +0.000000 0
+1.100538 +0.000000 0
+0.946120 +0.000000 0
+0.822060 +0.000000 0
+0.702911 +0.000000 0
+0.607907 +0.000000 0
+0.517306 +0.000000 0
+0.445548 +0.000000 0
+0.377544 +0.000000 0
+0.323999 +0.000000 0
+0.273533 +0.000000 0
+0.234000 +0.000000 0
+0.196919 +0.000000 0
+0.168000 +0.000000 0
+0.140986 +0.000000 0
+11.658494 +0.000000 0
+11.017807 +0.000000 0
+10.372203 +0.000000 0
+9.730561 +0.000000 0
+9.091188 +0.000000 0
+8.462999 +0.000000 0
+7.844351 +0.000000 0
+7.243771 +0.000000 0
+6.659472 +0.000000 0
+6.099183 +0.000000 0
+5.560802 +0.000000 0
+5.050928 +0.000000 0
+4.567045 +0.000000 0
+4.114416 +0.000000 0
+3.690090 +0.000000 0
+3.297943 +0.000000 0
+2.934659 +0.000000 0
+2.602807 +0.000000 0
+2.298848 +0.000000 0
+2.024231 +0.000000 0
+1.775364 +0.000000 0
+1.552822 +0.000000 0
+1.353131 +0.000000 0
+1.176247 +0.000000 0
+1.018956 +0.000000 0
+0.880823 +0.000000 0
+0.758991 +0.000000 0
+0.652824 +0.000000 0
+0.559868 +0.000000 0
+0.479420 +0.000000 0
+0.409437 +0.000000 0
+0.349237 +0.000000 0
+0.297165 +0.000000 0
+0.252611 +0.000000 0
+0.214261 +0.000000 0
+0.181599 +0.000000 0
+0.153606 +0.000000 0
+0.129860 +0.000000 0
+0.119447 +0.006636 0
+0.117812 +0.013090 0
+0.115168 +0.019195 0
+0.111630 +0.024807 0
+0.107340 +0.029817 0
+0.102458 +0.034153 0
+0.097148 +0.037780 0
+0.091570 +0.040698 0
+0.085865 +0.042933 0
+0.080159 +0.044533 0
+0.074552 +0.045559 0
+0.069124 +0.046083 0
+0.063933 +0.046174 0
+0.059019 +0.045904 0
+0.054405 +0.045338 0
+0.050102 +0.044535 0
+0.046111 +0.043550 0
+0.119861 +0.003329 0
+0.118761 +0.009897 0
+0.116610 +0.016196 0
+0.113502 +0.022070 0
+0.109569 +0.027392 0
+0.104962 +0.032072 0
+0.099846 +0.036056 0
+0.094383 +0.039326 0
+0.088725 +0.041898 0
+0.083005 +0.043808 0
+0.077337 +0.045113 0
+0.071812 +0.045880 0
+0.066496 +0.046178 0
+0.061440 +0.046080 0
+0.056674 +0.045654 0
+0.052215 +0.044963 0
+0.048068 +0.044062 0
+0.044231 +0.043003 0
+0.043550 +0.046111 0
+0.044535 +0.050102 0
+0.045338 +0.054405 0
+0.045904 +0.059019 0
+0.046174 +0.063933 0
+0.046083 +0.069124 0
+0.045559 +0.074552 0
+0.044533 +0.080159 0
+0.042933 +0.085865 0
+0.040698 +0.091570 0
+0.037780 +0.097148 0
+0.034153 +0.102458 0
+0.029817 +0.107340 0
+0.024807 +0.111630 0
+0.019195 +0.115168 0
+0.013090 +0.117812 0
+0.006636 +0.119447 0
+0.043003 +0.044231 0
+0.044062 +0.048068 0
+0.044963 +0.052215 0
+0.045654 +0.056674 0
+0.046080 +0.061440 0
+0.046178 +0.066496 0
+0.045880 +0.071812 0
+0.045113 +0.077337 0
+0.043808 +0.083005 0
+0.041898 +0.088725 0
+0.039326 +0.094383 0
+0.036056 +0.099846 0
+0.032072 +0.104962 0
+0.027392 +0.109569 0
+0.022070 +0.113502 0
+0.016196 +0.116610 0
+0.009897 +0.118761 0
+0.003329 +0.119861 0
+0.000000 +0.140986 0
+0.000000 +0.168000 0
+0.000000 +0.196919 0
+0.000000 +0.234000 0
+0.000000 +0.273533 0
+0.000000 +0.323999 0
+0.000000 +0.377544 0
+0.000000 +0.445548 0
+0.000000 +0.517306 0
+0.000000 +0.607907 0
+0.000000 +0.702911 0
+0.000000 +0.822060 0
+0.000000 +0.946120 0
+0.000000 +1.100538 0
+0.000000 +1.260047 0
+0.000000 +1.456925 0
+0.000000 +1.658508 0
+0.000000 +1.905019 0
+0.000000 +2.154993 0
+0.000000 +2.457603 0
+0.000000 +2.761271 0
+0.000000 +3.124907 0
+0.000000 +3.485760 0
+0.000000 +3.912928 0
+0.000000 +4.331877 0
+0.000000 +4.821896 0
+0.000000 +5.296674 0
+0.000000 +5.845190 0
+0.000000 +6.370098 0
+0.000000 +6.969023 0
+0.000000 +7.535094 0
+0.000000 +8.173045 0
+0.000000 +8.768661 0
+0.000000 +9.431841 0
+0.000000 +10.043701 0
+0.000000 +10.717089 0
+0.000000 +11.331361 0
+0.000000 +0.129860 0
+0.000000 +0.153606 0
+0.000000 +0.181599 0
+0.000000 +0.214261 0
+0.000000 +0.252611 0
+0.000000 +0.297165 0
+0.000000 +0.349237 0
+0.000000 +0.409437 0
+0.000000 +0.479420 0
+0.000000 +0.559868 0
+0.000000 +0.652824 0
+0.000000 +0.758991 0
+0.000000 +0.880823 0
+0.000000 +1.018956 0
+0.000000 +1.176247 0
+0.000000 +1.353131 0
+0.000000 +1.552822 0
+0.000000 +1.775364 0
+0.000000 +2.024231 0
+0.000000 +2.298848 0
+0.000000 +2.602807 0
+0.000000 +2.934659 0
+0.000000 +3.297943 0
+0.000000 +3.690090 0
+0.000000 +4.114416 0
+0.000000 +4.567045 0
+0.000000 +5.050928 0
+0.000000 +5.560802 0
+0.000000 +6.099183 0
+0.000000 +6.659472 0
+0.000000 +7.243771 0
+0.000000 +7.844351 0
+0.000000 +8.462999 0
+0.000000 +9.091188 0
+0.000000 +9.730561 0
+0.000000 +10.372203 0
+0.000000 +11.017807 0
+0.000000 +11.658494 0
+0.523433 +11.988579 0
+1.045869 +11.954336 0
+1.566314 +11.897338 0
+2.083778 +11.817693 0
+2.597275 +11.715552 0
+3.105829 +11.591110 0
+3.608470 +11.444603 0
+4.104242 +11.276311 0
+4.592201 +11.086554 0
+5.071419 +10.875693 0
+5.540983 +10.644130 0
+6.000000 +10.392305 0
+6.447595 +10.120697 0
+6.882917 +9.829825 0
+7.305137 +9.520240 0
+7.713451 +9.192533 0
+8.107082 +8.847328 0
+0.261779 +11.997144 0
+0.784838 +11.974307 0
+1.306402 +11.928676 0
+1.825481 +11.860338 0
+2.341084 +11.769423 0
+2.852231 +11.656105 0
+3.357948 +11.520598 0
+3.857274 +11.363162 0
+4.349256 +11.184094 0
+4.832960 +10.983738 0
+5.307464 +10.762473 0
+5.771865 +10.520721 0
+6.225279 +10.258942 0
+6.666843 +9.977635 0
+7.095716 +9.677335 0
+7.511082 +9.358614 0
+7.912150 +9.022078 0
+8.298157 +8.668368 0
+8.847328 +8.107082 0
+9.192533 +7.713451 0
+9.520240 +7.305137 0
+9.829825 +6.882917 0
+10.120697 +6.447595 0
+10.392305 +6.000000 0
+10.644130 +5.540983 0
+10.875693 +5.071419 0
+11.086554 +4.592201 0
+11.276311 +4.104242 0
+11.444603 +3.608470 0
+11.591110 +3.105829 0
+11.715552 +2.597275 0
+11.817693 +2.083778 0
+11.897338 +1.566314 0
+11.954336 +1.045869 0
+11.988579 +0.523433 0
+8.668368 +8.298157 0
+9.022078 +7.912150 0
+9.358614 +7.511082 0
+9.677335 +7.095716 0
+9.977635 +6.666843 0
+10.258942 +6.225279 0
+10.520721 +5.771865 0
+10.762473 +5.307464 0
+10.983738 +4.832960 0
+11.184094 +4.349256 0
+11.363162 +3.857274 0
+11.520598 +3.357948 0
+11.656105 +2.852231 0
+11.769423 +2.341084 0
+11.860338 +1.825481 0
+11.928676 +1.306402 0
+11.974307 +0.784838 0
+11.997144 +0.261779 0
+8.074162 +8.074162 0
+7.693102 +7.693102 0
+7.271292 +7.271292 0
+6.884041 +6.884041 0
+6.459709 +6.459709 0
+6.074215 +6.074217 0
+5.656422 +5.656420 0
+5.281135 +5.281138 0
+4.879117 +4.879115 0
+4.522265 +4.522263 0
+4.144570 +4.144571 0
+3.813345 +3.813342 0
+3.466985 +3.466992 0
+3.166873 +3.166870 0
+2.856706 +2.856704 0
+2.591031 +2.591032 0
+2.319494 +2.319493 0
+2.089394 +2.089394 0
+1.856601 +1.856601 0
+1.661230 +1.661230 0
+1.465338 +1.465338 0
+1.302290 +1.302290 0
+1.140011 +1.140011 0
+1.005809 +1.005809 0
+0.872947 +0.872947 0
+0.763515 +0.763515 0
+0.655448 +0.655448 0
+0.566518 +0.566518 0
+0.478621 +0.478621 0
+0.406111 +0.406111 0
+0.334199 +0.334199 0
+0.274705 +0.274705 0
+0.215754 +0.215754 0
+0.167482 +0.167482 0
+0.121095 +0.121095 0
+0.085715 +0.085715 0
+0.056773 +0.056773 0
+8.275791 +8.275792 0
+7.880073 +7.880072 0
+7.477619 +7.477619 0
+7.073593 +7.073593 0
+6.666697 +6.666697 0
+6.262412 +6.262411 0
+5.859609 +5.859608 0
+5.463829 +5.463830 0
+5.074008 +5.074005 0
+4.695467 +4.695471 0
+4.327066 +4.327065 0
+3.973624 +3.973624 0
+3.633786 +3.633787 0
+3.311662 +3.311657 0
+3.005582 +3.005587 0
+2.718832 +2.718830 0
+2.449427 +2.449427 0
+2.199785 +2.199785 0
+1.967681 +1.967681 0
+1.754734 +1.754734 0
+1.558580 +1.558580 0
+1.380165 +1.380165 0
+1.217099 +1.217099 0
+1.069807 +1.069807 0
+0.935973 +0.935973 0
+0.815654 +0.815654 0
+0.706684 +0.706684 0
+0.608887 +0.608887 0
+0.520312 +0.520312 0
+0.440683 +0.440683 0
+0.368341 +0.368341 0
+0.303084 +0.303084 0
+0.243712 +0.243712 0
+0.190408 +0.190408 0
+0.142820 +0.142820 0
+0.102086 +0.102086 0
+0.069428 +0.069428 0
+0.047750 +0.047750 0
+8.321688 +7.036255 0
+7.455807 +6.354426 0
+6.589398 +5.663798 0
+5.747917 +4.984186 0
+4.925204 +4.310296 0
+4.165965 +3.679095 0
+3.473380 +3.094570 0
+2.860903 +2.570156 0
+2.312947 +2.094436 0
+1.843927 +1.681877 0
+1.449816 +1.331013 0
+1.123773 +1.037544 0
+0.857222 +0.795202 0
+0.640788 +0.596606 0
+0.465114 +0.434039 0
+0.321671 +0.300294 0
+0.204080 +0.189958 0
+0.110806 +0.101983 0
+8.921616 +6.335150 0
+8.013243 +5.774238 0
+7.103715 +5.199982 0
+6.208771 +4.621031 0
+5.338054 +4.042828 0
+4.529579 +3.490694 0
+3.777504 +2.962312 0
+3.127974 +2.492919 0
+2.535455 +2.053069 0
+2.026652 +1.665391 0
+1.597961 +1.330750 0
+1.242632 +1.047120 0
+0.951905 +0.810243 0
+0.716020 +0.614362 0
+0.525037 +0.452941 0
+0.369556 +0.319378 0
+0.241673 +0.207949 0
+0.137000 +0.115612 0
+9.461996 +5.570001 0
+8.522869 +5.121343 0
+7.579580 +4.656415 0
+6.636328 +4.175579 0
+5.709642 +3.685208 0
+4.846477 +3.209288 0
+4.059458 +2.757054 0
+3.360036 +2.338361 0
+2.743821 +1.954569 0
+2.198104 +1.601382 0
+1.737180 +1.291934 0
+1.354471 +1.026092 0
+1.041116 +0.801434 0
+0.787048 +0.613829 0
+0.581836 +0.458034 0
+0.415321 +0.328265 0
+0.278224 +0.218813 0
+0.163379 +0.125061 0
+9.930791 +4.744316 0
+8.970187 +4.397570 0
+7.989410 +4.029709 0
+7.008328 +3.645393 0
+6.048972 +3.251153 0
+5.141356 +2.858058 0
+4.308385 +2.477129 0
+3.560549 +2.115932 0
+2.896636 +1.777616 0
+2.342414 +1.480369 0
+1.853858 +1.205346 0
+1.447855 +0.965932 0
+1.115427 +0.761208 0
+0.846232 +0.588520 0
+0.629433 +0.443931 0
+0.454264 +0.322636 0
+0.310337 +0.219280 0
+0.188007 +0.128238 0
+10.318916 +3.865243 0
+9.325230 +3.605261 0
+8.308972 +3.326189 0
+7.290567 +3.031377 0
+6.292410 +2.724704 0
+5.350195 +2.415856 0
+4.482510 +2.111481 0
+3.697507 +1.816556 0
+3.008697 +1.539753 0
+2.439097 +1.295684 0
+1.930282 +1.063896 0
+1.507790 +0.859616 0
+1.162395 +0.682978 0
+0.883428 +0.532525 0
+0.659693 +0.405522 0
+0.479995 +0.298225 0
+0.333207 +0.205957 0
+0.207825 +0.122791 0
+10.604932 +2.939713 0
+9.578156 +2.756926 0
+8.514207 +2.556720 0
+7.453293 +2.343680 0
+6.424623 +2.121480 0
+5.454158 +1.894820 0
+4.557381 +1.667277 0
+3.744831 +1.443098 0
+3.040182 +1.232116 0
+2.448905 +1.040548 0
+1.945880 +0.864899 0
+1.516885 +0.703779 0
+1.167596 +0.563091 0
+0.886881 +0.442216 0
+0.663188 +0.339422 0
+0.485065 +0.252017 0
+0.341100 +0.176272 0
+0.218901 +0.106754 0
+10.780405 +1.979425 0
+9.701187 +1.863771 0
+8.594667 +1.736881 0
+7.489982 +1.599908 0
+6.421555 +1.455193 0
+5.418923 +1.305894 0
+4.500076 +1.154696 0
+3.677042 +1.005073 0
+2.969692 +0.863052 0
+2.378808 +0.732609 0
+1.880328 +0.612265 0
+1.458217 +0.500931 0
+1.117201 +0.402967 0
+0.845469 +0.318218 0
+0.631089 +0.245715 0
+0.462531 +0.183744 0
+0.328602 +0.129723 0
+0.217269 +0.079492 0
+10.828708 +0.995916 0
+9.663017 +0.940035 0
+8.483395 +0.878325 0
+7.326408 +0.811462 0
+6.221581 +0.740311 0
+5.206730 +0.666872 0
+4.275939 +0.591484 0
+3.468927 +0.517529 0
+2.769456 +0.445412 0
+2.189599 +0.378244 0
+1.718598 +0.317692 0
+1.319948 +0.260822 0
+1.002040 +0.210536 0
+0.752195 +0.166839 0
+0.558112 +0.129311 0
+0.408387 +0.097125 0
+0.292556 +0.068964 0
+0.200291 +0.042570 0
+8.753904 +7.373542 0
+8.005179 +7.364559 0
+8.423856 +7.734387 0
+7.892109 +6.698981 0
+7.167566 +6.621371 0
+7.590804 +6.997513 0
+7.021841 +6.009585 0
+6.324869 +5.868763 0
+6.754989 +6.253653 0
+6.159774 +5.318004 0
+5.503453 +5.130157 0
+5.919105 +5.504679 0
+5.331758 +4.644535 0
+4.715421 +4.416283 0
+5.103845 +4.768821 0
+4.547304 +3.997316 0
+3.980961 +3.745848 0
+4.347199 +4.080889 0
+3.817261 +3.385929 0
+3.313440 +3.131785 0
+3.642595 +3.435205 0
+3.153036 +2.821284 0
+2.727040 +2.588327 0
+3.005402 +2.846816 0
+2.566376 +2.315315 0
+2.201674 +2.097991 0
+2.443009 +2.323667 0
+2.059377 +1.872069 0
+1.752714 +1.676203 0
+1.957826 +1.869241 0
+1.629803 +1.491771 0
+1.375969 +1.320128 0
+1.547270 +1.482290 0
+1.271961 +1.171321 0
+1.064592 +1.024224 0
+1.205631 +1.158449 0
+0.977952 +0.905263 0
+0.810121 +0.781195 0
+0.925091 +0.891140 0
+0.738649 +0.686623 0
+0.603400 +0.582870 0
+0.696715 +0.672503 0
+0.544570 +0.507732 0
+0.435373 +0.420998 0
+0.511300 +0.494222 0
+0.386658 +0.361004 0
+0.297971 +0.288145 0
+0.360171 +0.348341 0
+0.257271 +0.239945 0
+0.185590 +0.179159 0
+0.236293 +0.228367 0
+0.152084 +0.140969 0
+0.098103 +0.094111 0
+0.136407 +0.131371 0
+0.073923 +0.067073 0
+0.065210 +0.062094 0
+9.375694 +6.610694 0
+8.629479 +6.694536 0
+9.072357 +6.999662 0
+8.466955 +6.056001 0
+7.736305 +6.071137 0
+8.186459 +6.386606 0
+7.557690 +5.488261 0
+6.846318 +5.438913 0
+7.288139 +5.754245 0
+6.649450 +4.908080 0
+5.988916 +4.818053 0
+6.411606 +5.125694 0
+5.764976 +4.328380 0
+5.134182 +4.186760 0
+5.546802 +4.493276 0
+4.918877 +3.758464 0
+4.344009 +3.590221 0
+4.750449 +3.898690 0
+4.142831 +3.220859 0
+3.631521 +3.040476 0
+3.974983 +3.306966 0
+3.443045 +2.722281 0
+2.997279 +2.540665 0
+3.298732 +2.779563 0
+2.809906 +2.258374 0
+2.426217 +2.081238 0
+2.689136 +2.293947 0
+2.260696 +1.844995 0
+1.936693 +1.679618 0
+2.160751 +1.864400 0
+1.793946 +1.484745 0
+1.524850 +1.335558 0
+1.712393 +1.492986 0
+1.404249 +1.176902 0
+1.183851 +1.045917 0
+1.338463 +1.177820 0
+1.083624 +0.918158 0
+0.904994 +0.805426 0
+1.031049 +0.914577 0
+0.822649 +0.703361 0
+0.678683 +0.607495 0
+0.780831 +0.697167 0
+0.611353 +0.526242 0
+0.495246 +0.444967 0
+0.578084 +0.518614 0
+0.439971 +0.380122 0
+0.345695 +0.310900 0
+0.413380 +0.371760 0
+0.299705 +0.258696 0
+0.222871 +0.199681 0
+0.278496 +0.250175 0
+0.184116 +0.157314 0
+0.123809 +0.109216 0
+0.168034 +0.149695 0
+0.092193 +0.075688 0
+0.082925 +0.071638 0
+9.929717 +5.787966 0
+9.202163 +5.961460 0
+9.661979 +6.206637 0
+8.997575 +5.349682 0
+8.279878 +5.459366 0
+8.743171 +5.713207 0
+8.056795 +4.893197 0
+7.352753 +4.941059 0
+7.815311 +5.201439 0
+7.122425 +4.425083 0
+6.435024 +4.412834 0
+6.889044 +4.676283 0
+6.173943 +3.933255 0
+5.530067 +3.875202 0
+5.970712 +4.139420 0
+5.275763 +3.448353 0
+4.691205 +3.359071 0
+5.099369 +3.612439 0
+4.447224 +2.982234 0
+3.928429 +2.873172 0
+4.301002 +3.112600 0
+3.703320 +2.545986 0
+3.257943 +2.431225 0
+3.574748 +2.641897 0
+3.036256 +2.138628 0
+2.643761 +2.012589 0
+2.926694 +2.207215 0
+2.448213 +1.764961 0
+2.115585 +1.640660 0
+2.357437 +1.812440 0
+1.948093 +1.434950 0
+1.670047 +1.317239 0
+1.873087 +1.465820 0
+1.528642 +1.148194 0
+1.300450 +1.041291 0
+1.468115 +1.167408 0
+1.183116 +0.904110 0
+0.997956 +0.809497 0
+1.134708 +0.915012 0
+0.901863 +0.699285 0
+0.752624 +0.616908 0
+0.863314 +0.704362 0
+0.674512 +0.528920 0
+0.554244 +0.457617 0
+0.643755 +0.529925 0
+0.490681 +0.387404 0
+0.393005 +0.325399 0
+0.465938 +0.385535 0
+0.340564 +0.268895 0
+0.260281 +0.214486 0
+0.320546 +0.265090 0
+0.215736 +0.168061 0
+0.150270 +0.120986 0
+0.200114 +0.163544 0
+0.111248 +0.081703 0
+0.101669 +0.079095 0
+10.406197 +4.910671 0
+9.708158 +5.165087 0
+10.175669 +5.354860 0
+9.451447 +4.573049 0
+8.756397 +4.768496 0
+9.230126 +4.967873 0
+8.476311 +4.214491 0
+7.790075 +4.351446 0
+8.273708 +4.562131 0
+7.495165 +3.838360 0
+6.826414 +3.919056 0
+7.324112 +4.144071 0
+6.520958 +3.447664 0
+5.889549 +3.480355 0
+6.352245 +3.699472 0
+5.583389 +3.052244 0
+5.003449 +3.045685 0
+5.433204 +3.259167 0
+4.708981 +2.662917 0
+4.190136 +2.627208 0
+4.582158 +2.831463 0
+3.919615 +2.291813 0
+3.461891 +2.234064 0
+3.822076 +2.430841 0
+3.213223 +1.941180 0
+2.822716 +1.872548 0
+3.135253 +2.051393 0
+2.606122 +1.623680 0
+2.275874 +1.549194 0
+2.530625 +1.701568 0
+2.077568 +1.332988 0
+1.800049 +1.255602 0
+2.017020 +1.391016 0
+1.632708 +1.076314 0
+1.404779 +1.001715 0
+1.584159 +1.118168 0
+1.266084 +0.855082 0
+1.081128 +0.785907 0
+1.227452 +0.884450 0
+0.967837 +0.667395 0
+0.818871 +0.604799 0
+0.937150 +0.687248 0
+0.727250 +0.509860 0
+0.607348 +0.453798 0
+0.702701 +0.522477 0
+0.533451 +0.378029 0
+0.436063 +0.327587 0
+0.513468 +0.385107 0
+0.375825 +0.266768 0
+0.295133 +0.220586 0
+0.359209 +0.269620 0
+0.244275 +0.170526 0
+0.176088 +0.127589 0
+0.230609 +0.170512 0
+0.130043 +0.083785 0
+0.120776 +0.083331 0
+10.798452 +3.986719 0
+10.135008 +4.310839 0
+10.611962 +4.453739 0
+9.828288 +3.738206 0
+9.163182 +4.010055 0
+9.652483 +4.163032 0
+8.821707 +3.468624 0
+8.155573 +3.685103 0
+8.655996 +3.848615 0
+7.790975 +3.178505 0
+7.151739 +3.344841 0
+7.655850 +3.517821 0
+6.780204 +2.877105 0
+6.173608 +2.994963 0
+6.662535 +3.172268 0
+5.808524 +2.568810 0
+5.248113 +2.643977 0
+5.707363 +2.820778 0
+4.903740 +2.261883 0
+4.402663 +2.303176 0
+4.815801 +2.472263 0
+4.075029 +1.960936 0
+3.632953 +1.973361 0
+4.002619 +2.134303 0
+3.345806 +1.677498 0
+2.964702 +1.669267 0
+3.288503 +1.818845 0
+2.708504 +1.413046 0
+2.399314 +1.396867 0
+2.665831 +1.527175 0
+2.163318 +1.171894 0
+1.899123 +1.142222 0
+2.127258 +1.260118 0
+1.700145 +0.954134 0
+1.483560 +0.919167 0
+1.672157 +1.021832 0
+1.318872 +0.764224 0
+1.143520 +0.727362 0
+1.297210 +0.815208 0
+1.009354 +0.601426 0
+0.868484 +0.564785 0
+0.992439 +0.638983 0
+0.760509 +0.463557 0
+0.647415 +0.428111 0
+0.746955 +0.490403 0
+0.561088 +0.347325 0
+0.469296 +0.313055 0
+0.549672 +0.365598 0
+0.399932 +0.248499 0
+0.323305 +0.214558 0
+0.389670 +0.259865 0
+0.265785 +0.161814 0
+0.198761 +0.126744 0
+0.256200 +0.167737 0
+0.146698 +0.080364 0
+0.138788 +0.082860 0
+11.101189 +3.024657 0
+10.472432 +3.407148 0
+10.961102 +3.509888 0
+10.094539 +2.850204 0
+9.462136 +3.186777 0
+9.969909 +3.298995 0
+9.044096 +2.658134 0
+8.421248 +2.947580 0
+8.947971 +3.070165 0
+7.986574 +2.452392 0
+7.387919 +2.695666 0
+7.904637 +2.823521 0
+6.942941 +2.235375 0
+6.379476 +2.433325 0
+6.878350 +2.565346 0
+5.935290 +2.009433 0
+5.419791 +2.165312 0
+5.882473 +2.297172 0
+4.993290 +1.780290 0
+4.528486 +1.896935 0
+4.958016 +2.028907 0
+4.144008 +1.555476 0
+3.739281 +1.640417 0
+4.124899 +1.768101 0
+3.382322 +1.336691 0
+3.038521 +1.395223 0
+3.369790 +1.513378 0
+2.730815 +1.133712 0
+2.447138 +1.172850 0
+2.727091 +1.280032 0
+2.179678 +0.948209 0
+1.947855 +0.971913 0
+2.180007 +1.067007 0
+1.712040 +0.778556 0
+1.520352 +0.788157 0
+1.714243 +0.872988 0
+1.325675 +0.627981 0
+1.171476 +0.628470 0
+1.329029 +0.701806 0
+1.013418 +0.497702 0
+0.890323 +0.491853 0
+1.016894 +0.554354 0
+0.763792 +0.386489 0
+0.665500 +0.376097 0
+0.766565 +0.428961 0
+0.565234 +0.292087 0
+0.485648 +0.277983 0
+0.566626 +0.322872 0
+0.406352 +0.211292 0
+0.339424 +0.193275 0
+0.405767 +0.232360 0
+0.275419 +0.139629 0
+0.214730 +0.116187 0
+0.272401 +0.152496 0
+0.158589 +0.070054 0
+0.153422 +0.076132 0
+11.302471 +2.032916 0
+10.703843 +2.462928 0
+11.213482 +2.531776 0
+10.240437 +1.922680 0
+9.650011 +2.314302 0
+10.184669 +2.390690 0
+9.146959 +1.801425 0
+8.575960 +2.152887 0
+9.114878 +2.235150 0
+8.036381 +1.669206 0
+7.494449 +1.978831 0
+8.029903 +2.066672 0
+6.945263 +1.527872 0
+6.443714 +1.795620 0
+6.959246 +1.887477 0
+5.903329 +1.379891 0
+5.451829 +1.607055 0
+5.933488 +1.700797 0
+4.941327 +1.229197 0
+4.542811 +1.417636 0
+4.995733 +1.514086 0
+4.081886 +1.080496 0
+3.733315 +1.232844 0
+4.129347 +1.325279 0
+3.306352 +0.932372 0
+3.019561 +1.054701 0
+3.357004 +1.140899 0
+2.658812 +0.795939 0
+2.426449 +0.893162 0
+2.713246 +0.973001 0
+2.112429 +0.669655 0
+1.925266 +0.745049 0
+2.160225 +0.815996 0
+1.649783 +0.552698 0
+1.497510 +0.608009 0
+1.691187 +0.671418 0
+1.271204 +0.448246 0
+1.150437 +0.487863 0
+1.306927 +0.543171 0
+0.967653 +0.357192 0
+0.872574 +0.384265 0
+0.997416 +0.431755 0
+0.727213 +0.278963 0
+0.652160 +0.295889 0
+0.750996 +0.336318 0
+0.538094 +0.212195 0
+0.477664 +0.220539 0
+0.555970 +0.255067 0
+0.388979 +0.154751 0
+0.337707 +0.155038 0
+0.400949 +0.185334 0
+0.268486 +0.103379 0