# vtk DataFile Version 2.0
MyTitle
ASCII
DATASET UNSTRUCTURED_GRID
POINTS 1761 double
0.000000 0.000000 0.000000
1.000000 0.000000 0.000000
1.000000 1.000000 0.000000
0.000000 1.000000 0.000000
0.420000 0.420000 0.000000
0.580000 0.420000 0.000000
0.580000 0.580000 0.000000
0.420000 0.580000 0.000000
0.358579 0.358579 0.000000
0.641421 0.358579 0.000000
0.641421 0.641421 0.000000
0.358579 0.641421 0.000000
2.000000 0.000000 0.000000
2.000000 1.000000 0.000000
1.420000 0.420000 0.000000
1.580000 0.420000 0.000000
1.580000 0.580000 0.000000
1.420000 0.580000 0.000000
1.358579 0.358579 0.000000
1.641421 0.358579 0.000000
1.641421 0.641421 0.000000
1.358579 0.641421 0.000000
3.000000 0.000000 0.000000
3.000000 1.000000 0.000000
2.420000 0.420000 0.000000
2.580000 0.420000 0.000000
2.580000 0.580000 0.000000
2.420000 0.580000 0.000000
2.358579 0.358579 0.000000
2.641421 0.358579 0.000000
2.641421 0.641421 0.000000
2.358579 0.641421 0.000000
4.000000 0.000000 0.000000
4.000000 1.000000 0.000000
3.420000 0.420000 0.000000
3.580000 0.420000 0.000000
3.580000 0.580000 0.000000
3.420000 0.580000 0.000000
3.358579 0.358579 0.000000
3.641421 0.358579 0.000000
3.641421 0.641421 0.000000
3.358579 0.641421 0.000000
1.000000 2.000000 0.000000
0.000000 2.000000 0.000000
0.420000 1.420000 0.000000
0.580000 1.420000 0.000000
0.580000 1.580000 0.000000
0.420000 1.580000 0.000000
0.358579 1.358579 0.000000
0.641421 1.358579 0.000000
0.641421 1.641421 0.000000
0.358579 1.641421 0.000000
2.000000 2.000000 0.000000
1.420000 1.420000 0.000000
1.580000 1.420000 0.000000
1.580000 1.580000 0.000000
1.420000 1.580000 0.000000
1.358579 1.358579 0.000000
1.641421 1.358579 0.000000
1.641421 1.641421 0.000000
1.358579 1.641421 0.000000
3.000000 2.000000 0.000000
2.420000 1.420000 0.000000
2.580000 1.420000 0.000000
2.580000 1.580000 0.000000
2.420000 1.580000 0.000000
2.358579 1.358579 0.000000
2.641421 1.358579 0.000000
2.641421 1.641421 0.000000
2.358579 1.641421 0.000000
4.000000 2.000000 0.000000
3.420000 1.420000 0.000000
3.580000 1.420000 0.000000
3.580000 1.580000 0.000000
3.420000 1.580000 0.000000
3.358579 1.358579 0.000000
3.641421 1.358579 0.000000
3.641421 1.641421 0.000000
3.358579 1.641421 0.000000
1.000000 3.000000 0.000000
0.000000 3.000000 0.000000
0.420000 2.420000 0.000000
0.580000 2.420000 0.000000
0.580000 2.580000 0.000000
0.420000 2.580000 0.000000
0.358579 2.358579 0.000000
0.641421 2.358579 0.000000
0.641421 2.641421 0.000000
0.358579 2.641421 0.000000
2.000000 3.000000 0.000000
1.420000 2.420000 0.000000
1.580000 2.420000 0.000000
1.580000 2.580000 0.000000
1.420000 2.580000 0.000000
1.358579 2.358579 0.000000
1.641421 2.358579 0.000000
1.641421 2.641421 0.000000
1.358579 2.641421 0.000000
3.000000 3.000000 0.000000
2.420000 2.420000 0.000000
2.580000 2.420000 0.000000
2.580000 2.580000 0.000000
2.420000 2.580000 0.000000
2.358579 2.358579 0.000000
2.641421 2.358579 0.000000
2.641421 2.641421 0.000000
2.358579 2.641421 0.000000
4.000000 3.000000 0.000000
3.420000 2.420000 0.000000
3.580000 2.420000 0.000000
3.580000 2.580000 0.000000
3.420000 2.580000 0.000000
3.358579 2.358579 0.000000
3.641421 2.358579 0.000000
3.641421 2.641421 0.000000
3.358579 2.641421 0.000000
1.000000 4.000000 0.000000
0.000000 4.000000 0.000000
0.420000 3.420000 0.000000
0.580000 3.420000 0.000000
0.580000 3.580000 0.000000
0.420000 3.580000 0.000000
0.358579 3.358579 0.000000
0.641421 3.358579 0.000000
0.641421 3.641421 0.000000
0.358579 3.641421 0.000000
2.000000 4.000000 0.000000
1.420000 3.420000 0.000000
1.580000 3.420000 0.000000
1.580000 3.580000 0.000000
1.420000 3.580000 0.000000
1.358579 3.358579 0.000000
1.641421 3.358579 0.000000
1.641421 3.641421 0.000000
1.358579 3.641421 0.000000
3.000000 4.000000 0.000000
2.420000 3.420000 0.000000
2.580000 3.420000 0.000000
2.580000 3.580000 0.000000
2.420000 3.580000 0.000000
2.358579 3.358579 0.000000
2.641421 3.358579 0.000000
2.641421 3.641421 0.000000
2.358579 3.641421 0.000000
4.000000 4.000000 0.000000
3.420000 3.420000 0.000000
3.580000 3.420000 0.000000
3.580000 3.580000 0.000000
3.420000 3.580000 0.000000
3.358579 3.358579 0.000000
3.641421 3.358579 0.000000
3.641421 3.641421 0.000000
3.358579 3.641421 0.000000
0.500000 0.000000 0.000000
0.250000 0.000000 0.000000
0.750000 0.000000 0.000000
1.000000 0.500000 0.000000
1.000000 0.250000 0.000000
1.000000 0.750000 0.000000
0.500000 1.000000 0.000000
0.750000 1.000000 0.000000
0.250000 1.000000 0.000000
0.000000 0.500000 0.000000
0.000000 0.750000 0.000000
0.000000 0.250000 0.000000
0.500000 0.420000 0.000000
0.460000 0.420000 0.000000
0.540000 0.420000 0.000000
0.580000 0.500000 0.000000
0.580000 0.460000 0.000000
0.580000 0.540000 0.000000
0.500000 0.580000 0.000000
0.540000 0.580000 0.000000
0.460000 0.580000 0.000000
0.420000 0.500000 0.000000
0.420000 0.540000 0.000000
0.420000 0.460000 0.000000
0.500000 0.300001 0.000000
0.423464 0.315225 0.000000
0.576536 0.315225 0.000000
0.699999 0.500000 0.000000
0.684775 0.423464 0.000000
0.684775 0.576536 0.000000
0.500000 0.699999 0.000000
0.576536 0.684775 0.000000
0.423464 0.684775 0.000000
0.300001 0.500000 0.000000
0.315225 0.576536 0.000000
0.315225 0.423464 0.000000
0.389290 0.389290 0.000000
0.404645 0.404645 0.000000
0.373934 0.373934 0.000000
0.610710 0.389290 0.000000
0.595355 0.404645 0.000000
0.626066 0.373934 0.000000
0.610710 0.610710 0.000000
0.595355 0.595355 0.000000
0.626066 0.626066 0.000000
0.389290 0.610710 0.000000
0.404645 0.595355 0.000000
0.373934 0.626066 0.000000
0.179290 0.179290 0.000000
0.268934 0.268934 0.000000
0.089645 0.089645 0.000000
0.820710 0.179290 0.000000
0.731066 0.268934 0.000000
0.910355 0.089645 0.000000
0.820710 0.820710 0.000000
0.731066 0.731066 0.000000
0.910355 0.910355 0.000000
0.179290 0.820710 0.000000
0.268934 0.731066 0.000000
0.089645 0.910355 0.000000
1.500000 0.000000 0.000000
1.250000 0.000000 0.000000
1.750000 0.000000 0.000000
2.000000 0.500000 0.000000
2.000000 0.250000 0.000000
2.000000 0.750000 0.000000
1.500000 1.000000 0.000000
1.750000 1.000000 0.000000
1.250000 1.000000 0.000000
1.500000 0.420000 0.000000
1.460000 0.420000 0.000000
1.540000 0.420000 0.000000
1.580000 0.500000 0.000000
1.580000 0.460000 0.000000
1.580000 0.540000 0.000000
1.500000 0.580000 0.000000
1.540000 0.580000 0.000000
1.460000 0.580000 0.000000
1.420000 0.500000 0.000000
1.420000 0.540000 0.000000
1.420000 0.460000 0.000000
1.500000 0.300001 0.000000
1.423464 0.315225 0.000000
1.576536 0.315225 0.000000
1.699999 0.500000 0.000000
1.684775 0.423464 0.000000
1.684775 0.576536 0.000000
1.500000 0.699999 0.000000
1.576536 0.684775 0.000000
1.423464 0.684775 0.000000
1.300001 0.500000 0.000000
1.315225 0.576536 0.000000
1.315225 0.423464 0.000000
1.389290 0.389290 0.000000
1.404645 0.404645 0.000000
1.373934 0.373934 0.000000
1.610710 0.389290 0.000000
1.595355 0.404645 0.000000
1.626066 0.373934 0.000000
1.610710 0.610710 0.000000
1.595355 0.595355 0.000000
1.626066 0.626066 0.000000
1.389290 0.610710 0.000000
1.404645 0.595355 0.000000
1.373934 0.626066 0.000000
1.179290 0.179290 0.000000
1.268934 0.268934 0.000000
1.089645 0.089645 0.000000
1.820710 0.179290 0.000000
1.731066 0.268934 0.000000
1.910355 0.089645 0.000000
1.820710 0.820710 0.000000
1.731066 0.731066 0.000000
1.910355 0.910355 0.000000
1.179290 0.820710 0.000000
1.268934 0.731066 0.000000
1.089645 0.910355 0.000000
2.500000 0.000000 0.000000
2.250000 0.000000 0.000000
2.750000 0.000000 0.000000
3.000000 0.500000 0.000000
3.000000 0.250000 0.000000
3.000000 0.750000 0.000000
2.500000 1.000000 0.000000
2.750000 1.000000 0.000000
2.250000 1.000000 0.000000
2.500000 0.420000 0.000000
2.460000 0.420000 0.000000
2.540000 0.420000 0.000000
2.580000 0.500000 0.000000
2.580000 0.460000 0.000000
2.580000 0.540000 0.000000
2.500000 0.580000 0.000000
2.540000 0.580000 0.000000
2.460000 0.580000 0.000000
2.420000 0.500000 0.000000
2.420000 0.540000 0.000000
2.420000 0.460000 0.000000
2.500000 0.300001 0.000000
2.423464 0.315225 0.000000
2.576536 0.315225 0.000000
2.699999 0.500000 0.000000
2.684775 0.423464 0.000000
2.684775 0.576536 0.000000
2.500000 0.699999 0.000000
2.576536 0.684775 0.000000
2.423464 0.684775 0.000000
2.300001 0.500000 0.000000
2.315225 0.576536 0.000000
2.315225 0.423464 0.000000
2.389289 0.389289 0.000000
2.404645 0.404645 0.000000
2.373934 0.373934 0.000000
2.610711 0.389289 0.000000
2.595355 0.404645 0.000000
2.626066 0.373934 0.000000
2.610711 0.610711 0.000000
2.595355 0.595355 0.000000
2.626066 0.626066 0.000000
2.389289 0.610711 0.000000
2.404645 0.595355 0.000000
2.373934 0.626066 0.000000
2.179290 0.179290 0.000000
2.268934 0.268934 0.000000
2.089645 0.089645 0.000000
2.820710 0.179290 0.000000
2.731066 0.268934 0.000000
2.910355 0.089645 0.000000
2.820710 0.820710 0.000000
2.731066 0.731066 0.000000
2.910355 0.910355 0.000000
2.179290 0.820710 0.000000
2.268934 0.731066 0.000000
2.089645 0.910355 0.000000
3.500000 0.000000 0.000000
3.250000 0.000000 0.000000
3.750000 0.000000 0.000000
4.000000 0.500000 0.000000
4.000000 0.250000 0.000000
4.000000 0.750000 0.000000
3.500000 1.000000 0.000000
3.750000 1.000000 0.000000
3.250000 1.000000 0.000000
3.500000 0.420000 0.000000
3.460000 0.420000 0.000000
3.540000 0.420000 0.000000
3.580000 0.500000 0.000000
3.580000 0.460000 0.000000
3.580000 0.540000 0.000000
3.500000 0.580000 0.000000
3.540000 0.580000 0.000000
3.460000 0.580000 0.000000
3.420000 0.500000 0.000000
3.420000 0.540000 0.000000
3.420000 0.460000 0.000000
3.500000 0.300001 0.000000
3.423464 0.315225 0.000000
3.576536 0.315225 0.000000
3.699999 0.500000 0.000000
3.684775 0.423464 0.000000
3.684775 0.576536 0.000000
3.500000 0.699999 0.000000
3.576536 0.684775 0.000000
3.423464 0.684775 0.000000
3.300001 0.500000 0.000000
3.315225 0.576536 0.000000
3.315225 0.423464 0.000000
3.389289 0.389289 0.000000
3.404645 0.404645 0.000000
3.373934 0.373934 0.000000
3.610711 0.389289 0.000000
3.595355 0.404645 0.000000
3.626066 0.373934 0.000000
3.610711 0.610711 0.000000
[...]
POINT_DATA 1761
VECTORS sol double
+0.000000 +0.000000 0
+0.000000 +0.000000 0
-0.261482 +0.021793 0
+0.000000 +0.000000 0
-0.107771 +0.008982 0
-0.132709 +0.011052 0
-0.167032 +0.013921 0
-0.134779 +0.011242 0
-0.078991 +0.006583 0
-0.116182 +0.009669 0
-0.178507 +0.014877 0
-0.119526 +0.009976 0
+0.000000 +0.000000 0
-0.124751 +0.009886 0
-0.184126 +0.015126 0
-0.173097 +0.014159 0
-0.214469 +0.017557 0
-0.229323 +0.018857 0
-0.153868 +0.012655 0
-0.137671 +0.011233 0
-0.204691 +0.016725 0
-0.232282 +0.019139 0
+0.000000 +0.000000 0
+0.085057 -0.007813 0
-0.030270 +0.001957 0
-0.011093 +0.000344 0
-0.007956 -0.000055 0
-0.033002 +0.002054 0
-0.032985 +0.002290 0
-0.004490 -0.000107 0
+0.004291 -0.001072 0
-0.041687 +0.002799 0
+0.000000 +0.000000 0
+0.000000 +0.000000 0
+0.040323 -0.003731 0
+0.035057 -0.003220 0
+0.046688 -0.004261 0
+0.054334 -0.004991 0
+0.033196 -0.003093 0
+0.025695 -0.002360 0
+0.043477 -0.003950 0
+0.058066 -0.005333 0
-0.245040 +0.020934 0
+0.000000 +0.000000 0
-0.235774 +0.019870 0
-0.289385 +0.024374 0
-0.289239 +0.024424 0
-0.236087 +0.019944 0
-0.193550 +0.016300 0
-0.284133 +0.023901 0
-0.283464 +0.023960 0
-0.194252 +0.016430 0
+0.000000 -0.000000 0
-0.351675 +0.029310 0
-0.315464 +0.026185 0
-0.301414 +0.025121 0
-0.340655 +0.028499 0
-0.337908 +0.028162 0
-0.278714 +0.023049 0
-0.252932 +0.021080 0
-0.321150 +0.026946 0
+0.245040 -0.020934 0
+0.067992 -0.006575 0
+0.114396 -0.010507 0
+0.145436 -0.013029 0
+0.098047 -0.009006 0
+0.032337 -0.003525 0
+0.109918 -0.010096 0
+0.162793 -0.014398 0
+0.082276 -0.007557 0
+0.000000 +0.000000 0
+0.176686 -0.015443 0
+0.147682 -0.012889 0
+0.163373 -0.014182 0
+0.196853 -0.017103 0
+0.163692 -0.014357 0
+0.117501 -0.010274 0
+0.140956 -0.012207 0
+0.200478 -0.017384 0
-0.085057 +0.007813 0
+0.000000 +0.000000 0
-0.163373 +0.014182 0
-0.196853 +0.017103 0
-0.176686 +0.015443 0
-0.147682 +0.012889 0
-0.140956 +0.012207 0
-0.200478 +0.017384 0
-0.163692 +0.014357 0
-0.117501 +0.010274 0
+0.124751 -0.009886 0
-0.145436 +0.013029 0
-0.098047 +0.009006 0
-0.067992 +0.006575 0
-0.114396 +0.010507 0
-0.162793 +0.014398 0
-0.082276 +0.007557 0
-0.032337 +0.003525 0
-0.109918 +0.010096 0
+0.261482 -0.021793 0
+0.301414 -0.025121 0
+0.340655 -0.028499 0
+0.351675 -0.029310 0
+0.315464 -0.026185 0
+0.252932 -0.021080 0
+0.321150 -0.026946 0
+0.337908 -0.028162 0
+0.278714 -0.023049 0
+0.000000 +0.000000 0
+0.289239 -0.024424 0
+0.236087 -0.019944 0
+0.235774 -0.019870 0
+0.289385 -0.024374 0
+0.283464 -0.023960 0
+0.194252 -0.016430 0
+0.193550 -0.016300 0
+0.284133 -0.023901 0
+0.000000 +0.000000 0
+0.000000 +0.000000 0
-0.046688 +0.004261 0
-0.054334 +0.004991 0
-0.040323 +0.003731 0
-0.035057 +0.003220 0
-0.043477 +0.003950 0
-0.058066 +0.005333 0
-0.033196 +0.003093 0
-0.025695 +0.002360 0
+0.000000 +0.000000 0
+0.007956 +0.000055 0
+0.033002 -0.002054 0
+0.030270 -0.001957 0
+0.011093 -0.000344 0
-0.004291 +0.001072 0
+0.041687 -0.002799 0
+0.032985 -0.002290 0
+0.004490 +0.000107 0
+0.000000 +0.000000 0
+0.214469 -0.017557 0
+0.229323 -0.018857 0
+0.184126 -0.015126 0
+0.173097 -0.014159 0
+0.204691 -0.016725 0
+0.232282 -0.019139 0
+0.153868 -0.012655 0
+0.137671 -0.011233 0
+0.000000 +0.000000 0
+0.167032 -0.013921 0
+0.134779 -0.011242 0
+0.107771 -0.008982 0
+0.132709 -0.011052 0
+0.178507 -0.014877 0
+0.119526 -0.009976 0
+0.078991 -0.006583 0
+0.116182 -0.009669 0
+0.000000 +0.000000 0
+0.000000 +0.000000 0
+0.000000 +0.000000 0
-0.167097 +0.013853 0
-0.089724 +0.007430 0
-0.221556 +0.018408 0
-0.184412 +0.015443 0
-0.235075 +0.019649 0
-0.100974 +0.008463 0
+0.000000 +0.000000 0
+0.000000 +0.000000 0
+0.000000 +0.000000 0
-0.123032 +0.010250 0
-0.116041 +0.009670 0
-0.128612 +0.010713 0
-0.152870 +0.012735 0
-0.143470 +0.011950 0
-0.160747 +0.013394 0
-0.154180 +0.012856 0
-0.161469 +0.013460 0
-0.145228 +0.012111 0
-0.123877 +0.010328 0
-0.130023 +0.010843 0
-0.116416 +0.009704 0
-0.086784 +0.007227 0
-0.081123 +0.006759 0
-0.098802 +0.008225 0
-0.157206 +0.013084 0
-0.137042 +0.011404 0
-0.172449 +0.014362 0
-0.161370 +0.013467 0
-0.175002 +0.014596 0
-0.141214 +0.011787 0
-0.088074 +0.007346 0
-0.101010 +0.008428 0
-0.081703 +0.006812 0
-0.093649 +0.007805 0
-0.100742 +0.008396 0
-0.086254 +0.007189 0
-0.125396 +0.010439 0
-0.129302 +0.010766 0
-0.121109 +0.010081 0
-0.173791 +0.014484 0
-0.170619 +0.014220 0
-0.176467 +0.014707 0
-0.128141 +0.010691 0
-0.131722 +0.010988 0
-0.124183 +0.010363 0
-0.019337 +0.001612 0
-0.044510 +0.003710 0
-0.004881 +0.000407 0
-0.061188 +0.005079 0
-0.088556 +0.007361 0
-0.031820 +0.002638 0
-0.218376 +0.018200 0
-0.196016 +0.016337 0
-0.240744 +0.020064 0
-0.065950 +0.005517 0
-0.093037 +0.007773 0
-0.035143 +0.002943 0
+0.000000 +0.000000 0
+0.000000 +0.000000 0
+0.000000 +0.000000 0
-0.096548 +0.007651 0
-0.053740 +0.004258 0
-0.118841 +0.009417 0
-0.255565 +0.021082 0
-0.199988 +0.016309 0
-0.272315 +0.022600 0
-0.182551 +0.014967 0
-0.184338 +0.015129 0
-0.178772 +0.014641 0
-0.198083 +0.016208 0
-0.186573 +0.015263 0
-0.207415 +0.016975 0
-0.226465 +0.018583 0
-0.221562 +0.018160 0
-0.229047 +0.018816 0
-0.211150 +0.017353 0
-0.221409 +0.018201 0
-0.198647 +0.016322 0
-0.129442 +0.010608 0
-0.138069 +0.011337 0
-0.130407 +0.010664 0
-0.167123 +0.013610 0
-0.151140 +0.012314 0
-0.185766 +0.015144 0
-0.234312 +0.019247 0
-0.222224 +0.018206 0
-0.238320 +0.019614 0
-0.197972 +0.016315 0
-0.218494 +0.018010 0
-0.175458 +0.014448 0
-0.170075 +0.013980 0
-0.177365 +0.014575 0
-0.162260 +0.013342 0
-0.156142 +0.012757 0
-0.164783 +0.013471 0
-0.147022 +0.012004 0
-0.211055 +0.017262 0
-0.213123 +0.017439 0
-0.208373 +0.017034 0
-0.232258 +0.019117 0
-0.231111 +0.019014 0
-0.232726 +0.019165 0
-0.070414 +0.005810 0
-0.109791 +0.009044 0
-0.034149 +0.002822 0
-0.053157 +0.004292 0
-0.091115 +0.007403 0
-0.023291 +0.001866 0
-0.170135 +0.013773 0
-0.186555 +0.015184 0
-0.150000 +0.012045 0
-0.245212 +0.020327 0
-0.236048 +0.019509 0
-0.254281 +0.021137 0
+0.000000 +0.000000 0
+0.000000 +0.000000 0
+0.000000 +0.000000 0
+0.030557 -0.003033 0
+0.013723 -0.001408 0
+0.053490 -0.005090 0
+0.012631 -0.001831 0
+0.057807 -0.005602 0
-0.050706 +0.003556 0
-0.020658 +0.001136 0
-0.025498 +0.001546 0
-0.015829 +0.000733 0
-0.010354 +0.000199 0
-0.010924 +0.000285 0
-0.009365 +0.000086 0
-0.020330 +0.000973 0
-0.014062 +0.000449 0
-0.026677 +0.001511 0
-0.032750 +0.002084 0
-0.033159 +0.002088 0
-0.031774 +0.002039 0
-0.016201 +0.000933 0
-0.023691 +0.001547 0
-0.010162 +0.000409 0
+0.004649 -0.000995 0
+0.000427 -0.000578 0
+0.006540 -0.001215 0
-0.014726 +0.000487 0
-0.002881 -0.000500 0
-0.029340 +0.001728 0
-0.048626 +0.003486 0
-0.048864 +0.003448 0
-0.042063 +0.002996 0
-0.032030 +0.002154 0
-0.031271 +0.002065 0
-0.032710 +0.002238 0
-0.007662 +0.000105 0
-0.009328 +0.000219 0
-0.005980 -0.000010 0
-0.001935 -0.000559 0
-0.004991 -0.000304 0
+0.001143 -0.000814 0
-0.037459 +0.002431 0
-0.035228 +0.002241 0
-0.039571 +0.002613 0
-0.027530 +0.002102 0
-0.032126 +0.002363 0
-0.016823 +0.001313 0
+0.004134 -0.000558 0
+0.001411 -0.000456 0
+0.003455 -0.000390 0
+0.044199 -0.004398 0
+0.023730 -0.002684 0
+0.064774 -0.006120 0
-0.076188 +0.005747 0
-0.057094 +0.004124 0
-0.098858 +0.007675 0
+0.000000 +0.000000 0
+0.000000 +0.000000 0
+0.000000 +0.000000 0
+0.000000 +0.000000 0
+0.000000 +0.000000 0
+0.000000 +0.000000 0
+0.083785 -0.007469 0
+0.048309 -0.004290 0
+0.095047 -0.008553 0
+0.038860 -0.003580 0
+0.039897 -0.003683 0
+0.037232 -0.003425 0
+0.041456 -0.003797 0
+0.038383 -0.003521 0
+0.044234 -0.004044 0
+0.051954 -0.004755 0
+0.049657 -0.004538 0
+0.053516 -0.004906 0
+0.047926 -0.004419 0
+0.051297 -0.004721 0
+0.044253 -0.004088 0
+0.026457 -0.002447 0
+0.029105 -0.002702 0
+0.025592 -0.002358 0
+0.030423 -0.002778 0
+0.027374 -0.002507 0
+0.035892 -0.003268 0
+0.058215 -0.005293 0
+0.051670 -0.004691 0
+0.060437 -0.005518 0
+0.045414 -0.004226 0
+0.052585 -0.004863 0
+0.038843 -0.003622 0
+0.037017 -0.003436 0
+0.038735 -0.003589 0
+0.035171 -0.003271 0
+0.030463 -0.002798 0
+0.032770 -0.003010 0
+0.028058 -0.002577 0
+0.045456 -0.004139 0
+0.046174 -0.004209 0
+0.044619 -0.004058 0
+0.056532 -0.005193 0
+0.055501 -0.005098 0
+0.057403 -0.005272 0
+0.013359 -0.001289 0
+0.022646 -0.002139 0
+0.005784 -0.000575 0
+0.006290 -0.000578 0
+0.014479 -0.001330 0
+0.001588 -0.000146 0
+0.027997 -0.002509 0
+0.036424 -0.003287 0
+0.015999 -0.001426 0
+0.071035 -0.006525 0
+0.063762 -0.005857 0
+0.078311 -0.007193 0
-0.306860 +0.025793 0
-0.294704 +0.024657 0
-0.284211 +0.024045 0
-0.189643 +0.016202 0
-0.233431 +0.019942 0
-0.105559 +0.009018 0
+0.000000 +0.000000 0
+0.000000 +0.000000 0
+0.000000 +0.000000 0
-0.268656 +0.022635 0
-0.253609 +0.021370 0
-0.280623 +0.023640 0
-0.294853 +0.024865 0
-0.293487 +0.024734 0
-0.293408 +0.024759 0
-0.268792 +0.022703 0
-0.280629 +0.023700 0
-0.253846 +0.021443 0
-0.240785 +0.020316 0
-0.239634 +0.020231 0
-0.239482 +0.020194 0
-0.241444 +0.020308 0
-0.216673 +0.018234 0
-0.265446 +0.022323 0
-0.300481 +0.025325 0
-0.296818 +0.024987 0
-0.296165 +0.024998 0
-0.242054 +0.020492 0
-0.265282 +0.022448 0
-0.217513 +0.018411 0
-0.171864 +0.014504 0
-0.178507 +0.015082 0
-0.178139 +0.015017 0
-0.215901 +0.018189 0
-0.226129 +0.019054 0
-0.205013 +0.017268 0
-0.288634 +0.024296 0
-0.289440 +0.024371 0
-0.286973 +0.024148 0
-0.288259 +0.024353 0
-0.289193 +0.024426 0
-0.286480 +0.024208 0
-0.216400 +0.018292 0
-0.226533 +0.019143 0
-0.205615 +0.017386 0
-0.084071 +0.007065 0
-0.134749 +0.011337 0
-0.039717 +0.003334 0
-0.271089 +0.022704 0
-0.274648 +0.023054 0
-0.267334 +0.022336 0
-0.265833 +0.022563 0
-0.272247 +0.023055 0
-0.257426 +0.021912 0
-0.085768 +0.007287 0
-0.136053 +0.011530 0
-0.041043 +0.003496 0
-0.096548 +0.007651 0
-0.118841 +0.009417 0
-0.053740 +0.004258 0
-0.189643 +0.016202 0
-0.105559 +0.009018 0
-0.233431 +0.019942 0
-0.340940 +0.028363 0
-0.348201 +0.028995 0
-0.329943 +0.027419 0
-0.314992 +0.026196 0
-0.316875 +0.026327 0
-0.309791 +0.025790 0
-0.328310 +0.027419 0
-0.316577 +0.026413 0
-0.336356 +0.028116 0
-0.353134 +0.029483 0
-0.348585 +0.029132 0
-0.354149 +0.029541 0
-0.314385 +0.026088 0
-0.328763 +0.027340 0
-0.297683 +0.024653 0
-0.250913 +0.020768 0
-0.262895 +0.021733 0
-0.247943 +0.020584 0
-0.284712 +0.023873 0
-0.266796 +0.022316 0
-0.304549 +0.025559 0
-0.341246 +0.028555 0
-0.334581 +0.028042 0
-0.342863 +0.028635 0
-0.347101 +0.028929 0
-0.349931 +0.029165 0
-0.343233 +0.028606 0
-0.298816 +0.024759 0
-0.307530 +0.025504 0
-0.289204 +0.023940 0
-0.278893 +0.023244 0
-0.290574 +0.024217 0
-0.266383 +0.022201 0
-0.332938 +0.027893 0
-0.337256 +0.028235 0
-0.327631 +0.027469 0
-0.297925 +0.024830 0
-0.314680 +0.026227 0
-0.280871 +0.023409 0
-0.188256 +0.015321 0
-0.228267 +0.018747 0
-0.154574 +0.012435 0
-0.119588 +0.009967 0
-0.182658 +0.015223 0
-0.059454 +0.004955 0
-0.275058 +0.023294 0
-0.293482 +0.024737 0
-0.259755 +0.022096 0
+0.170320 -0.014973 0
+0.126638 -0.011339 0
+0.208210 -0.018023 0
+0.189643 -0.016202 0
+0.233431 -0.019942 0
+0.105559 -0.009018 0
+0.094145 -0.008807 0
+0.081704 -0.007748 0
+0.105092 -0.009731 0
+0.131629 -0.011931 0
+0.123375 -0.011254 0
+0.139014 -0.012525 0
+0.125101 -0.011316 0
+0.136188 -0.012254 0
+0.112306 -0.010227 0
+0.084158 -0.007904 0
+0.091444 -0.008488 0
+0.076300 -0.007263 0
+0.065347 -0.006353 0
+0.046119 -0.004719 0
+0.087563 -0.008227 0
+0.147923 -0.013236 0
+0.130910 -0.011840 0
+0.159550 -0.014172 0
+0.139069 -0.012332 0
+0.156319 -0.013813 0
+0.112698 -0.010105 0
+0.035164 -0.003672 0
+0.054741 -0.005275 0
+0.028265 -0.003141 0
+0.050302 -0.005066 0
+0.059179 -0.005824 0
+0.041259 -0.004292 0
+0.112908 -0.010371 0
+0.113829 -0.010455 0
+0.111650 -0.010255 0
+0.155201 -0.013809 0
+0.150563 -0.013441 0
+0.159390 -0.014138 0
+0.090721 -0.008333 0
+0.094521 -0.008682 0
+0.086651 -0.007959 0
-0.058067 +0.004198 0
-0.015383 +0.000560 0
-0.094285 +0.007285 0
+0.096912 -0.008901 0
+0.102362 -0.009402 0
+0.091364 -0.008392 0
+0.208778 -0.018041 0
+0.185102 -0.016149 0
+0.229061 -0.019664 0
+0.038901 -0.003573 0
+0.059417 -0.005457 0
+0.019340 -0.001776 0
+0.000000 +0.000000 0
+0.000000 +0.000000 0
+0.000000 +0.000000 0
+0.189643 -0.016202 0
+0.105559 -0.009018 0
+0.233431 -0.019942 0
+0.166430 -0.014535 0
+0.172670 -0.015086 0
+0.158038 -0.013797 0
+0.158365 -0.013784 0
+0.153693 -0.013396 0
+0.161601 -0.014047 0
+0.184620 -0.016033 0
+0.175037 -0.015198 0
+0.191915 -0.016670 0
+0.189909 -0.016549 0
+0.194191 -0.016897 0
+0.184037 -0.016061 0
+0.138288 -0.012133 0
+0.150880 -0.013245 0
+0.127129 -0.011138 0
+0.114213 -0.009936 0
+0.113021 -0.009857 0
+0.124178 -0.010777 0
+0.181727 -0.015712 0
+0.161981 -0.014010 0
+0.195585 -0.016925 0
+0.188689 -0.016466 0
+0.197966 -0.017217 0
+0.176955 -0.015489 0
+0.171375 -0.015004 0
+0.174321 -0.015249 0
+0.167910 -0.014713 0
+0.133216 -0.011637 0
+0.140581 -0.012275 0
+0.125450 -0.010964 0
+0.153214 -0.013285 0
+0.158562 -0.013757 0
+0.147419 -0.012774 0
+0.199880 -0.017350 0
+0.198626 -0.017249 0
+0.200542 -0.017399 0
+0.123748 -0.011028 0
+0.142393 -0.012574 0
+0.104901 -0.009465 0
+0.046118 -0.004057 0
+0.078135 -0.006850 0
+0.020572 -0.001817 0
+0.072721 -0.006253 0
+0.106022 -0.009151 0
+0.037750 -0.003235 0
+0.218004 -0.018772 0
+0.206337 -0.017832 0
+0.231390 -0.019849 0
-0.170320 +0.014973 0
-0.208210 +0.018023 0
-0.126638 +0.011339 0
-0.083785 +0.007469 0
-0.095047 +0.008553 0
-0.048309 +0.004290 0
+0.000000 +0.000000 0
+0.000000 +0.000000 0
+0.000000 +0.000000 0
-0.184620 +0.016033 0
-0.175037 +0.015198 0
-0.191915 +0.016670 0
-0.189909 +0.016549 0
-0.194191 +0.016897 0
-0.184037 +0.016061 0
-0.166430 +0.014535 0
-0.172670 +0.015086 0
-0.158038 +0.013797 0
-0.158365 +0.013784 0
-0.153693 +0.013396 0
-0.161601 +0.014047 0
-0.181727 +0.015712 0
-0.161981 +0.014010 0
-0.195585 +0.016925 0
-0.188689 +0.016466 0
-0.197966 +0.017217 0
-0.176955 +0.015489 0
-0.138288 +0.012133 0
-0.150880 +0.013245 0
-0.127129 +0.011138 0
-0.114213 +0.009936 0
-0.113021 +0.009857 0
-0.124178 +0.010777 0
-0.153214 +0.013285 0
-0.158562 +0.013757 0
-0.147419 +0.012774 0
-0.199880 +0.017350 0
-0.198626 +0.017249 0
-0.200542 +0.017399 0
-0.171375 +0.015004 0
-0.174321 +0.015249 0
-0.167910 +0.014713 0
-0.133216 +0.011637 0
-0.140581 +0.012275 0
-0.125450 +0.010964 0
-0.072721 +0.006253 0
-0.106022 +0.009151 0
-0.037750 +0.003235 0
-0.218004 +0.018772 0
-0.206337 +0.017832 0
-0.231390 +0.019849 0
-0.123748 +0.011028 0
-0.142393 +0.012574 0
-0.104901 +0.009465 0
-0.046118 +0.004057 0
-0.078135 +0.006850 0
-0.020572 +0.001817 0
+0.096548 -0.007651 0
+0.053740 -0.004258 0
+0.118841 -0.009417 0
-0.012631 +0.001831 0
+0.050706 -0.003556 0
-0.057807 +0.005602 0
-0.125101 +0.011316 0
-0.136188 +0.012254 0
-0.112306 +0.010227 0
-0.084158 +0.007904 0
-0.091444 +0.008488 0
-0.076300 +0.007263 0
-0.094145 +0.008807 0
-0.081704 +0.007748 0
-0.105092 +0.009731 0
-0.131629 +0.011931 0
-0.123375 +0.011254 0
-0.139014 +0.012525 0
-0.139069 +0.012332 0
-0.156319 +0.013813 0
-0.112698 +0.010105 0
-0.035164 +0.003672 0
-0.054741 +0.005275 0
-0.028265 +0.003141 0
-0.065347 +0.006353 0
-0.046119 +0.004719 0
-0.087563 +0.008227 0
-0.147923 +0.013236 0
-0.130910 +0.011840 0
-0.159550 +0.014172 0
-0.155201 +0.013809 0
-0.150563 +0.013441 0
-0.159390 +0.014138 0
-0.090721 +0.008333 0
-0.094521 +0.008682 0
-0.086651 +0.007959 0
-0.050302 +0.005066 0
-0.059179 +0.005824 0
-0.041259 +0.004292 0
-0.112908 +0.010371 0
-0.113829 +0.010455 0
-0.111650 +0.010255 0
-0.208778 +0.018041 0
-0.185102 +0.016149 0
-0.229061 +0.019664 0
-0.038901 +0.003573 0
-0.059417 +0.005457 0
-0.019340 +0.001776 0
+0.058067 -0.004198 0
+0.015383 -0.000560 0
+0.094285 -0.007285 0
-0.096912 +0.008901 0
-0.102362 +0.009402 0
-0.091364 +0.008392 0
+0.306860 -0.025793 0
+0.284211 -0.024045 0
+0.294704 -0.024657 0
+0.255565 -0.021082 0
+0.272315 -0.022600 0
+0.199988 -0.016309 0
+0.328310 -0.027419 0
+0.316577 -0.026413 0
+0.336356 -0.028116 0
+0.353134 -0.029483 0
+0.348585 -0.029132 0
+0.354149 -0.029541 0
+0.340940 -0.028363 0
+0.348201 -0.028995 0
+0.329943 -0.027419 0
+0.314992 -0.026196 0
+0.316875 -0.026327 0
+0.309791 -0.025790 0
+0.284712 -0.023873 0
+0.266796 -0.022316 0
+0.304549 -0.025559 0
+0.341246 -0.028555 0
+0.334581 -0.028042 0
+0.342863 -0.028635 0
+0.314385 -0.026088 0
+0.328763 -0.027340 0
+0.297683 -0.024653 0
+0.250913 -0.020768 0
+0.262895 -0.021733 0
+0.247943 -0.020584 0
+0.278893 -0.023244 0
+0.290574 -0.024217 0
+0.266383 -0.022201 0
+0.332938 -0.027893 0
+0.337256 -0.028235 0
+0.327631 -0.027469 0
+0.347101 -0.028929 0
+0.349931 -0.029165 0
+0.343233 -0.028606 0
+0.298816 -0.024759 0
+0.307530 -0.025504 0
+0.289204 -0.023940 0
+0.119588 -0.009967 0
+0.182658 -0.015223 0
+0.059454 -0.004955 0
+0.275058 -0.023294 0
+0.293482 -0.024737 0
+0.259755 -0.022096 0
+0.297925 -0.024830 0
+0.314680 -0.026227 0
+0.280871 -0.023409 0
+0.188256 -0.015321 0
+0.228267 -0.018747 0
+0.154574 -0.012435 0
+0.000000 +0.000000 0
+0.000000 +0.000000 0
+0.000000 +0.000000 0
+0.184412 -0.015443 0
+0.100974 -0.008463 0
+0.235075 -0.019649 0
+0.268792 -0.022703 0
+0.280629 -0.023700 0
+0.253846 -0.021443 0
+0.240785 -0.020316 0
+0.239634 -0.020231 0
+0.239482 -0.020194 0
+0.268656 -0.022635 0
+0.253609 -0.021370 0
+0.280623 -0.023640 0
+0.294853 -0.024865 0
+0.293487 -0.024734 0
+0.293408 -0.024759 0
+0.242054 -0.020492 0
+0.265282 -0.022448 0
+0.217513 -0.018411 0
+0.171864 -0.014504 0
+0.178507 -0.015082 0
+0.178139 -0.015017 0
+0.241444 -0.020308 0
+0.216673 -0.018234 0
+0.265446 -0.022323 0
+0.300481 -0.025325 0
+0.296818 -0.024987 0
+0.296165 -0.024998 0
+0.288259 -0.024353 0
+0.289193 -0.024426 0
+0.286480 -0.024208 0
+0.216400 -0.018292 0
+0.226533 -0.019143 0
+0.205615 -0.017386 0
+0.215901 -0.018189 0
+0.226129 -0.019054 0
+0.205013 -0.017268 0
+0.288634 -0.024296 0
+0.289440 -0.024371 0
+0.286973 -0.024148 0
+0.265833 -0.022563 0
+0.272247 -0.023055 0
+0.257426 -0.021912 0
+0.085768 -0.007287 0
+0.136053 -0.011530 0
+0.041043 -0.003496 0
+0.084071 -0.007065 0
+0.134749 -0.011337 0
+0.039717 -0.003334 0
+0.271089 -0.022704 0
+0.274648 -0.023054 0
+0.267334 -0.022336 0
-0.030557 +0.003033 0
-0.053490 +0.005090 0
-0.013723 +0.001408 0
+0.000000 +0.000000 0
+0.000000 +0.000000 0
+0.000000 +0.000000 0
+0.000000 +0.000000 0
+0.000000 +0.000000 0
+0.000000 +0.000000 0
-0.051954 +0.004755 0
-0.049657 +0.004538 0
-0.053516 +0.004906 0
-0.047926 +0.004419 0
-0.051297 +0.004721 0
-0.044253 +0.004088 0
-0.038860 +0.003580 0
-0.039897 +0.003683 0
-0.037232 +0.003425 0
-0.041456 +0.003797 0
-0.038383 +0.003521 0
-0.044234 +0.004044 0
-0.058215 +0.005293 0
-0.051670 +0.004691 0
-0.060437 +0.005518 0
-0.045414 +0.004226 0
-0.052585 +0.004863 0
-0.038843 +0.003622 0
-0.026457 +0.002447 0
-0.029105 +0.002702 0
-0.025592 +0.002358 0
-0.030423 +0.002778 0
-0.027374 +0.002507 0
-0.035892 +0.003268 0
-0.045456 +0.004139 0
-0.046174 +0.004209 0
-0.044619 +0.004058 0
-0.056532 +0.005193 0
-0.055501 +0.005098 0
-0.057403 +0.005272 0
-0.037017 +0.003436 0
-0.038735 +0.003589 0
-0.035171 +0.003271 0
-0.030463 +0.002798 0
-0.032770 +0.003010 0
-0.028058 +0.002577 0
-0.027997 +0.002509 0
-0.036424 +0.003287 0
-0.015999 +0.001426 0
-0.071035 +0.006525 0
-0.063762 +0.005857 0
-0.078311 +0.007193 0
-0.013359 +0.001289 0
-0.022646 +0.002139 0
-0.005784 +0.000575 0
-0.006290 +0.000578 0
-0.014479 +0.001330 0
-0.001588 +0.000146 0
+0.096548 -0.007651 0
+0.118841 -0.009417 0
+0.053740 -0.004258 0
+0.000000 +0.000000 0
+0.000000 +0.000000 0
+0.000000 +0.000000 0
+0.020330 -0.000973 0
+0.014062 -0.000449 0
+0.026677 -0.001511 0
+0.032750 -0.002084 0
+0.033159 -0.002088 0
+0.031774 -0.002039 0
+0.020658 -0.001136 0
+0.025498 -0.001546 0
+0.015829 -0.000733 0
+0.010354 -0.000199 0
+0.010924 -0.000285 0
+0.009365 -0.000086 0
+0.014726 -0.000487 0
+0.002881 +0.000500 0
+0.029340 -0.001728 0
+0.048626 -0.003486 0
+0.048864 -0.003448 0
+0.042063 -0.002996 0
+0.016201 -0.000933 0
+0.023691 -0.001547 0
+0.010162 -0.000409 0
-0.004649 +0.000995 0