# vtk DataFile Version 2.0
MyTitle
ASCII
DATASET UNSTRUCTURED_GRID
POINTS 1761 double
0.000000 0.000000 0.000000
1.000000 0.000000 0.000000
1.000000 1.000000 0.000000
0.000000 1.000000 0.000000
0.420000 0.420000 0.000000
0.580000 0.420000 0.000000
0.580000 0.580000 0.000000
0.420000 0.580000 0.000000
0.358579 0.358579 0.000000
0.641421 0.358579 0.000000
0.641421 0.641421 0.000000
0.358579 0.641421 0.000000
2.000000 0.000000 0.000000
2.000000 1.000000 0.000000
1.420000 0.420000 0.000000
1.580000 0.420000 0.000000
1.580000 0.580000 0.000000
1.420000 0.580000 0.000000
1.358579 0.358579 0.000000
1.641421 0.358579 0.000000
1.641421 0.641421 0.000000
1.358579 0.641421 0.000000
3.000000 0.000000 0.000000
3.000000 1.000000 0.000000
2.420000 0.420000 0.000000
2.580000 0.420000 0.000000
2.580000 0.580000 0.000000
2.420000 0.580000 0.000000
2.358579 0.358579 0.000000
2.641421 0.358579 0.000000
2.641421 0.641421 0.000000
2.358579 0.641421 0.000000
4.000000 0.000000 0.000000
4.000000 1.000000 0.000000
3.420000 0.420000 0.000000
3.580000 0.420000 0.000000
3.580000 0.580000 0.000000
3.420000 0.580000 0.000000
3.358579 0.358579 0.000000
3.641421 0.358579 0.000000
3.641421 0.641421 0.000000
3.358579 0.641421 0.000000
1.000000 2.000000 0.000000
0.000000 2.000000 0.000000
0.420000 1.420000 0.000000
0.580000 1.420000 0.000000
0.580000 1.580000 0.000000
0.420000 1.580000 0.000000
0.358579 1.358579 0.000000
0.641421 1.358579 0.000000
0.641421 1.641421 0.000000
0.358579 1.641421 0.000000
2.000000 2.000000 0.000000
1.420000 1.420000 0.000000
1.580000 1.420000 0.000000
1.580000 1.580000 0.000000
1.420000 1.580000 0.000000
1.358579 1.358579 0.000000
1.641421 1.358579 0.000000
1.641421 1.641421 0.000000
1.358579 1.641421 0.000000
3.000000 2.000000 0.000000
2.420000 1.420000 0.000000
2.580000 1.420000 0.000000
2.580000 1.580000 0.000000
2.420000 1.580000 0.000000
2.358579 1.358579 0.000000
2.641421 1.358579 0.000000
2.641421 1.641421 0.000000
2.358579 1.641421 0.000000
4.000000 2.000000 0.000000
3.420000 1.420000 0.000000
3.580000 1.420000 0.000000
3.580000 1.580000 0.000000
3.420000 1.580000 0.000000
3.358579 1.358579 0.000000
3.641421 1.358579 0.000000
3.641421 1.641421 0.000000
3.358579 1.641421 0.000000
1.000000 3.000000 0.000000
0.000000 3.000000 0.000000
0.420000 2.420000 0.000000
0.580000 2.420000 0.000000
0.580000 2.580000 0.000000
0.420000 2.580000 0.000000
0.358579 2.358579 0.000000
0.641421 2.358579 0.000000
0.641421 2.641421 0.000000
0.358579 2.641421 0.000000
2.000000 3.000000 0.000000
1.420000 2.420000 0.000000
1.580000 2.420000 0.000000
1.580000 2.580000 0.000000
1.420000 2.580000 0.000000
1.358579 2.358579 0.000000
1.641421 2.358579 0.000000
1.641421 2.641421 0.000000
1.358579 2.641421 0.000000
3.000000 3.000000 0.000000
2.420000 2.420000 0.000000
2.580000 2.420000 0.000000
2.580000 2.580000 0.000000
2.420000 2.580000 0.000000
2.358579 2.358579 0.000000
2.641421 2.358579 0.000000
2.641421 2.641421 0.000000
2.358579 2.641421 0.000000
4.000000 3.000000 0.000000
3.420000 2.420000 0.000000
3.580000 2.420000 0.000000
3.580000 2.580000 0.000000
3.420000 2.580000 0.000000
3.358579 2.358579 0.000000
3.641421 2.358579 0.000000
3.641421 2.641421 0.000000
3.358579 2.641421 0.000000
1.000000 4.000000 0.000000
0.000000 4.000000 0.000000
0.420000 3.420000 0.000000
0.580000 3.420000 0.000000
0.580000 3.580000 0.000000
0.420000 3.580000 0.000000
0.358579 3.358579 0.000000
0.641421 3.358579 0.000000
0.641421 3.641421 0.000000
0.358579 3.641421 0.000000
2.000000 4.000000 0.000000
1.420000 3.420000 0.000000
1.580000 3.420000 0.000000
1.580000 3.580000 0.000000
1.420000 3.580000 0.000000
1.358579 3.358579 0.000000
1.641421 3.358579 0.000000
1.641421 3.641421 0.000000
1.358579 3.641421 0.000000
3.000000 4.000000 0.000000
2.420000 3.420000 0.000000
2.580000 3.420000 0.000000
2.580000 3.580000 0.000000
2.420000 3.580000 0.000000
2.358579 3.358579 0.000000
2.641421 3.358579 0.000000
2.641421 3.641421 0.000000
2.358579 3.641421 0.000000
4.000000 4.000000 0.000000
3.420000 3.420000 0.000000
3.580000 3.420000 0.000000
3.580000 3.580000 0.000000
3.420000 3.580000 0.000000
3.358579 3.358579 0.000000
3.641421 3.358579 0.000000
3.641421 3.641421 0.000000
3.358579 3.641421 0.000000
0.500000 0.000000 0.000000
0.250000 0.000000 0.000000
0.750000 0.000000 0.000000
1.000000 0.500000 0.000000
1.000000 0.250000 0.000000
1.000000 0.750000 0.000000
0.500000 1.000000 0.000000
0.750000 1.000000 0.000000
0.250000 1.000000 0.000000
0.000000 0.500000 0.000000
0.000000 0.750000 0.000000
0.000000 0.250000 0.000000
0.500000 0.420000 0.000000
0.460000 0.420000 0.000000
0.540000 0.420000 0.000000
0.580000 0.500000 0.000000
0.580000 0.460000 0.000000
0.580000 0.540000 0.000000
0.500000 0.580000 0.000000
0.540000 0.580000 0.000000
0.460000 0.580000 0.000000
0.420000 0.500000 0.000000
0.420000 0.540000 0.000000
0.420000 0.460000 0.000000
0.500000 0.300001 0.000000
0.423464 0.315225 0.000000
0.576536 0.315225 0.000000
0.699999 0.500000 0.000000
0.684775 0.423464 0.000000
0.684775 0.576536 0.000000
0.500000 0.699999 0.000000
0.576536 0.684775 0.000000
0.423464 0.684775 0.000000
0.300001 0.500000 0.000000
0.315225 0.576536 0.000000
0.315225 0.423464 0.000000
0.389290 0.389290 0.000000
0.404645 0.404645 0.000000
0.373934 0.373934 0.000000
0.610710 0.389290 0.000000
0.595355 0.404645 0.000000
0.626066 0.373934 0.000000
0.610710 0.610710 0.000000
0.595355 0.595355 0.000000
0.626066 0.626066 0.000000
0.389290 0.610710 0.000000
0.404645 0.595355 0.000000
0.373934 0.626066 0.000000
0.179290 0.179290 0.000000
0.268934 0.268934 0.000000
0.089645 0.089645 0.000000
0.820710 0.179290 0.000000
0.731066 0.268934 0.000000
0.910355 0.089645 0.000000
0.820710 0.820710 0.000000
0.731066 0.731066 0.000000
0.910355 0.910355 0.000000
0.179290 0.820710 0.000000
0.268934 0.731066 0.000000
0.089645 0.910355 0.000000
1.500000 0.000000 0.000000
1.250000 0.000000 0.000000
1.750000 0.000000 0.000000
2.000000 0.500000 0.000000
2.000000 0.250000 0.000000
2.000000 0.750000 0.000000
1.500000 1.000000 0.000000
1.750000 1.000000 0.000000
1.250000 1.000000 0.000000
1.500000 0.420000 0.000000
1.460000 0.420000 0.000000
1.540000 0.420000 0.000000
1.580000 0.500000 0.000000
1.580000 0.460000 0.000000
1.580000 0.540000 0.000000
1.500000 0.580000 0.000000
1.540000 0.580000 0.000000
1.460000 0.580000 0.000000
1.420000 0.500000 0.000000
1.420000 0.540000 0.000000
1.420000 0.460000 0.000000
1.500000 0.300001 0.000000
1.423464 0.315225 0.000000
1.576536 0.315225 0.000000
1.699999 0.500000 0.000000
1.684775 0.423464 0.000000
1.684775 0.576536 0.000000
1.500000 0.699999 0.000000
1.576536 0.684775 0.000000
1.423464 0.684775 0.000000
1.300001 0.500000 0.000000
1.315225 0.576536 0.000000
1.315225 0.423464 0.000000
1.389290 0.389290 0.000000
1.404645 0.404645 0.000000
1.373934 0.373934 0.000000
1.610710 0.389290 0.000000
1.595355 0.404645 0.000000
1.626066 0.373934 0.000000
1.610710 0.610710 0.000000
1.595355 0.595355 0.000000
1.626066 0.626066 0.000000
1.389290 0.610710 0.000000
1.404645 0.595355 0.000000
1.373934 0.626066 0.000000
1.179290 0.179290 0.000000
1.268934 0.268934 0.000000
1.089645 0.089645 0.000000
1.820710 0.179290 0.000000
1.731066 0.268934 0.000000
1.910355 0.089645 0.000000
1.820710 0.820710 0.000000
1.731066 0.731066 0.000000
1.910355 0.910355 0.000000
1.179290 0.820710 0.000000
1.268934 0.731066 0.000000
1.089645 0.910355 0.000000
2.500000 0.000000 0.000000
2.250000 0.000000 0.000000
2.750000 0.000000 0.000000
3.000000 0.500000 0.000000
3.000000 0.250000 0.000000
3.000000 0.750000 0.000000
2.500000 1.000000 0.000000
2.750000 1.000000 0.000000
2.250000 1.000000 0.000000
2.500000 0.420000 0.000000
2.460000 0.420000 0.000000
2.540000 0.420000 0.000000
2.580000 0.500000 0.000000
2.580000 0.460000 0.000000
2.580000 0.540000 0.000000
2.500000 0.580000 0.000000
2.540000 0.580000 0.000000
2.460000 0.580000 0.000000
2.420000 0.500000 0.000000
2.420000 0.540000 0.000000
2.420000 0.460000 0.000000
2.500000 0.300001 0.000000
2.423464 0.315225 0.000000
2.576536 0.315225 0.000000
2.699999 0.500000 0.000000
2.684775 0.423464 0.000000
2.684775 0.576536 0.000000
2.500000 0.699999 0.000000
2.576536 0.684775 0.000000
2.423464 0.684775 0.000000
2.300001 0.500000 0.000000
2.315225 0.576536 0.000000
2.315225 0.423464 0.000000
2.389289 0.389289 0.000000
2.404645 0.404645 0.000000
2.373934 0.373934 0.000000
2.610711 0.389289 0.000000
2.595355 0.404645 0.000000
2.626066 0.373934 0.000000
2.610711 0.610711 0.000000
2.595355 0.595355 0.000000
2.626066 0.626066 0.000000
2.389289 0.610711 0.000000
2.404645 0.595355 0.000000
2.373934 0.626066 0.000000
2.179290 0.179290 0.000000
2.268934 0.268934 0.000000
2.089645 0.089645 0.000000
2.820710 0.179290 0.000000
2.731066 0.268934 0.000000
2.910355 0.089645 0.000000
2.820710 0.820710 0.000000
2.731066 0.731066 0.000000
2.910355 0.910355 0.000000
2.179290 0.820710 0.000000
2.268934 0.731066 0.000000
2.089645 0.910355 0.000000
3.500000 0.000000 0.000000
3.250000 0.000000 0.000000
3.750000 0.000000 0.000000
4.000000 0.500000 0.000000
4.000000 0.250000 0.000000
4.000000 0.750000 0.000000
3.500000 1.000000 0.000000
3.750000 1.000000 0.000000
3.250000 1.000000 0.000000
3.500000 0.420000 0.000000
3.460000 0.420000 0.000000
3.540000 0.420000 0.000000
3.580000 0.500000 0.000000
3.580000 0.460000 0.000000
3.580000 0.540000 0.000000
3.500000 0.580000 0.000000
3.540000 0.580000 0.000000
3.460000 0.580000 0.000000
3.420000 0.500000 0.000000
3.420000 0.540000 0.000000
3.420000 0.460000 0.000000
3.500000 0.300001 0.000000
3.423464 0.315225 0.000000
3.576536 0.315225 0.000000
3.699999 0.500000 0.000000
3.684775 0.423464 0.000000
3.684775 0.576536 0.000000
3.500000 0.699999 0.000000
3.576536 0.684775 0.000000
3.423464 0.684775 0.000000
3.300001 0.500000 0.000000
3.315225 0.576536 0.000000
3.315225 0.423464 0.000000
3.389289 0.389289 0.000000
3.404645 0.404645 0.000000
3.373934 0.373934 0.000000
3.610711 0.389289 0.000000
3.595355 0.404645 0.000000
3.626066 0.373934 0.000000
3.610711 0.610711 0.000000
[...]
POINT_DATA 1761
VECTORS sol double
+0.000000 +0.000000 0
+0.000000 +0.000000 0
+0.010971 +0.195728 0
+0.000000 +0.000000 0
+0.004522 +0.080670 0
+0.005198 +0.097785 0
+0.007008 +0.125030 0
+0.006025 +0.102439 0
+0.003314 +0.059127 0
+0.004276 +0.084459 0
+0.007489 +0.133619 0
+0.005613 +0.091977 0
+0.000000 +0.000000 0
-0.016274 +0.003200 0
-0.001509 +0.099104 0
-0.004000 +0.082346 0
-0.004371 +0.104483 0
-0.001118 +0.126627 0
-0.000640 +0.085426 0
-0.004341 +0.060632 0
-0.005497 +0.094162 0
+0.000475 +0.134998 0
+0.000000 +0.000000 0
-0.033985 -0.191203 0
-0.022529 -0.077129 0
-0.023956 -0.094097 0
-0.029835 -0.120541 0
-0.027912 -0.098135 0
-0.017921 -0.056255 0
-0.020018 -0.081364 0
-0.030215 -0.129150 0
-0.026643 -0.087842 0
+0.000000 +0.000000 0
+0.000000 +0.000000 0
-0.017249 -0.095416 0
-0.014007 -0.078805 0
-0.017516 -0.100179 0
-0.021709 -0.122139 0
-0.015102 -0.082330 0
-0.010266 -0.057760 0
-0.015533 -0.090026 0
-0.023201 -0.130529 0
+0.031788 +0.273602 0
+0.000000 +0.000000 0
+0.019127 +0.215205 0
+0.022880 +0.261643 0
+0.025504 +0.272560 0
+0.021168 +0.223943 0
+0.015216 +0.174629 0
+0.021192 +0.251557 0
+0.025978 +0.271240 0
+0.018267 +0.187823 0
+0.000000 -0.000000 0
+0.014755 +0.263241 0
+0.008731 +0.217249 0
+0.012646 +0.225619 0
+0.018797 +0.273879 0
+0.014177 +0.252936 0
+0.004106 +0.176813 0
+0.010612 +0.189328 0
+0.021061 +0.272206 0
-0.031788 -0.273602 0
-0.041013 -0.210901 0
-0.045707 -0.257155 0
-0.044263 -0.268871 0
-0.039175 -0.220402 0
-0.036246 -0.170494 0
-0.043918 -0.247088 0
-0.041719 -0.268144 0
-0.032874 -0.184951 0
+0.000000 +0.000000 0
-0.037582 -0.258752 0
-0.030618 -0.212946 0
-0.030653 -0.222078 0
-0.037555 -0.270190 0
-0.036903 -0.248467 0
-0.025136 -0.172678 0
-0.025219 -0.186456 0
-0.036803 -0.269111 0
+0.033985 +0.191203 0
+0.000000 +0.000000 0
+0.030653 +0.222078 0
+0.037555 +0.270190 0
+0.037582 +0.258752 0
+0.030618 +0.212946 0
+0.025219 +0.186456 0
+0.036803 +0.269111 0
+0.036903 +0.248467 0
+0.025136 +0.172678 0
+0.016274 -0.003200 0
+0.044263 +0.268871 0
+0.039175 +0.220402 0
+0.041013 +0.210901 0
+0.045707 +0.257155 0
+0.041719 +0.268144 0
+0.032874 +0.184951 0
+0.036246 +0.170494 0
+0.043918 +0.247088 0
-0.010971 -0.195728 0
-0.012646 -0.225619 0
-0.018797 -0.273879 0
-0.014755 -0.263241 0
-0.008731 -0.217249 0
-0.010612 -0.189328 0
-0.021061 -0.272206 0
-0.014177 -0.252936 0
-0.004106 -0.176813 0
+0.000000 +0.000000 0
-0.025504 -0.272560 0
-0.021168 -0.223943 0
-0.019127 -0.215205 0
-0.022880 -0.261643 0
-0.025978 -0.271240 0
-0.018267 -0.187823 0
-0.015216 -0.174629 0
-0.021192 -0.251557 0
+0.000000 +0.000000 0
+0.000000 +0.000000 0
+0.017516 +0.100179 0
+0.021709 +0.122139 0
+0.017249 +0.095416 0
+0.014007 +0.078805 0
+0.015533 +0.090026 0
+0.023201 +0.130529 0
+0.015102 +0.082330 0
+0.010266 +0.057760 0
+0.000000 +0.000000 0
+0.029835 +0.120541 0
+0.027912 +0.098135 0
+0.022529 +0.077129 0
+0.023956 +0.094097 0
+0.030215 +0.129150 0
+0.026643 +0.087842 0
+0.017921 +0.056255 0
+0.020018 +0.081364 0
+0.000000 +0.000000 0
+0.004371 -0.104483 0
+0.001118 -0.126627 0
+0.001509 -0.099104 0
+0.004000 -0.082346 0
+0.005497 -0.094162 0
-0.000475 -0.134998 0
+0.000640 -0.085426 0
+0.004341 -0.060632 0
+0.000000 +0.000000 0
-0.007008 -0.125030 0
-0.006025 -0.102439 0
-0.004522 -0.080670 0
-0.005198 -0.097785 0
-0.007489 -0.133619 0
-0.005613 -0.091977 0
-0.003314 -0.059127 0
-0.004276 -0.084459 0
+0.000000 +0.000000 0
+0.000000 +0.000000 0
+0.000000 +0.000000 0
+0.003915 +0.112097 0
+0.001753 +0.058727 0
+0.006878 +0.155708 0
+0.010833 +0.151019 0
+0.012280 +0.186096 0
+0.006248 +0.084017 0
+0.000000 +0.000000 0
+0.000000 +0.000000 0
+0.000000 +0.000000 0
+0.005011 +0.091461 0
+0.004802 +0.086580 0
+0.005144 +0.095213 0
+0.006179 +0.113446 0
+0.005705 +0.106074 0
+0.006615 +0.119784 0
+0.006703 +0.116392 0
+0.006904 +0.121406 0
+0.006407 +0.110026 0
+0.005348 +0.093359 0
+0.005707 +0.098384 0
+0.004951 +0.087422 0
+0.003410 +0.063994 0
+0.003300 +0.060289 0
+0.003751 +0.072302 0
+0.005851 +0.114553 0
+0.005004 +0.099452 0
+0.006779 +0.127169 0
+0.007515 +0.123913 0
+0.007799 +0.132910 0
+0.006671 +0.108832 0
+0.003926 +0.066894 0
+0.004633 +0.077264 0
+0.003532 +0.061592 0
+0.003929 +0.070100 0
+0.004227 +0.075409 0
+0.003619 +0.064564 0
+0.004770 +0.091805 0
+0.004992 +0.094973 0
+0.004532 +0.088350 0
+0.007291 +0.130089 0
+0.007158 +0.127715 0
+0.007404 +0.132091 0
+0.005867 +0.097976 0
+0.005959 +0.100413 0
+0.005760 +0.095259 0
+0.000811 +0.014475 0
+0.001867 +0.033317 0
+0.000205 +0.003653 0
+0.001716 +0.042232 0
+0.002914 +0.062927 0
+0.000741 +0.021327 0
+0.009162 +0.163462 0
+0.008224 +0.146725 0
+0.010101 +0.180205 0
+0.003618 +0.052935 0
+0.004705 +0.073002 0
+0.002069 +0.028797 0
+0.000000 +0.000000 0
+0.000000 +0.000000 0
+0.000000 +0.000000 0
-0.012595 +0.002477 0
-0.007010 +0.001379 0
-0.015503 +0.003048 0
+0.001551 +0.152844 0
-0.006668 +0.086557 0
+0.007422 +0.187051 0
-0.002753 +0.092988 0
-0.002126 +0.096642 0
-0.003381 +0.088190 0
-0.004332 +0.095263 0
-0.004201 +0.089222 0
-0.004388 +0.100369 0
-0.002726 +0.118246 0
-0.003550 +0.111984 0
-0.001912 +0.123140 0
-0.001423 +0.114941 0
-0.001298 +0.121340 0
-0.001493 +0.107490 0
-0.002154 +0.065088 0
-0.001372 +0.073309 0
-0.003129 +0.061553 0
-0.006386 +0.068922 0
-0.005526 +0.063373 0
-0.006424 +0.079438 0
-0.002000 +0.125784 0
-0.003897 +0.110910 0
-0.000461 +0.134534 0
+0.000533 +0.115598 0
+0.000772 +0.128350 0
-0.000008 +0.100438 0
-0.001058 +0.092951 0
-0.001277 +0.096206 0
-0.000836 +0.089406 0
-0.004223 +0.071703 0
-0.004127 +0.077051 0
-0.004308 +0.066123 0
-0.004949 +0.100103 0
-0.004659 +0.102501 0
-0.005223 +0.097419 0
-0.000335 +0.131588 0
-0.000733 +0.129266 0
+0.000065 +0.133535 0
+0.000512 +0.042468 0
+0.000144 +0.063472 0
+0.000437 +0.021387 0
-0.003600 +0.015342 0
-0.004212 +0.034513 0
-0.002197 +0.004126 0
-0.009972 +0.055608 0
-0.007494 +0.075401 0
-0.012914 +0.031743 0
+0.005661 +0.164150 0
+0.003002 +0.147752 0
+0.008335 +0.180553 0
+0.000000 +0.000000 0
+0.000000 +0.000000 0
+0.000000 +0.000000 0
-0.021726 -0.108595 0
-0.011667 -0.056777 0
-0.028802 -0.151397 0
-0.033241 -0.146613 0
-0.035404 -0.181549 0
-0.026034 -0.080126 0
-0.023755 -0.087775 0
-0.023265 -0.082950 0
-0.023986 -0.091508 0
-0.027472 -0.109259 0
-0.025845 -0.102114 0
-0.028806 -0.115420 0
-0.029468 -0.111915 0
-0.029801 -0.116904 0
-0.028832 -0.105616 0
-0.025780 -0.089342 0
-0.026994 -0.094198 0
-0.024282 -0.083621 0
-0.016845 -0.061352 0
-0.016973 -0.057600 0
-0.017965 -0.069507 0
-0.025752 -0.110639 0
-0.022825 -0.095948 0
-0.028421 -0.122913 0
-0.030486 -0.119396 0
-0.031003 -0.128347 0
-0.028919 -0.104457 0
-0.021758 -0.063387 0
-0.024183 -0.073420 0
-0.019677 -0.058417 0
-0.020324 -0.066876 0
-0.021447 -0.072022 0
-0.019137 -0.061513 0
-0.022127 -0.088392 0
-0.023076 -0.091417 0
-0.021110 -0.085090 0
-0.030215 -0.125581 0
-0.030066 -0.123210 0
-0.030274 -0.127594 0
-0.027469 -0.093728 0
-0.027737 -0.096130 0
-0.027121 -0.091059 0
-0.006925 -0.013272 0
-0.011864 -0.031351 0
-0.003036 -0.003097 0
-0.009158 -0.040768 0
-0.014282 -0.060692 0
-0.004441 -0.020600 0
-0.031883 -0.158994 0
-0.030698 -0.142306 0
-0.033055 -0.175691 0
-0.022160 -0.049289 0
-0.024289 -0.069151 0
-0.019549 -0.025360 0
+0.000000 +0.000000 0
+0.000000 +0.000000 0
+0.000000 +0.000000 0
+0.000000 +0.000000 0
+0.000000 +0.000000 0
+0.000000 +0.000000 0
-0.023959 -0.148438 0
-0.013118 -0.082666 0
-0.030546 -0.182504 0
-0.015991 -0.089302 0
-0.016716 -0.092937 0
-0.015082 -0.084559 0
-0.016100 -0.091245 0
-0.015130 -0.085420 0
-0.016898 -0.096184 0
-0.020038 -0.113770 0
-0.018874 -0.107574 0
-0.020986 -0.118637 0
-0.019869 -0.110754 0
-0.020893 -0.116976 0
-0.018648 -0.103529 0
-0.011280 -0.062446 0
-0.012842 -0.070514 0
-0.010544 -0.058865 0
-0.011446 -0.065415 0
-0.010619 -0.060199 0
-0.013127 -0.075594 0
-0.020971 -0.121267 0
-0.018352 -0.106535 0
-0.022744 -0.129971 0
-0.020434 -0.111685 0
-0.022414 -0.124095 0
-0.017813 -0.096934 0
-0.016299 -0.089538 0
-0.016807 -0.092650 0
-0.015742 -0.086146 0
-0.012172 -0.068479 0
-0.013093 -0.073665 0
-0.011210 -0.063072 0
-0.016653 -0.095855 0
-0.017119 -0.098218 0
-0.016138 -0.093218 0
-0.022588 -0.127081 0
-0.022175 -0.124762 0
-0.022935 -0.129037 0
-0.007955 -0.041005 0
-0.011512 -0.061236 0
-0.004137 -0.020660 0
-0.002513 -0.014140 0
-0.005785 -0.032547 0
-0.000634 -0.003569 0
-0.008569 -0.051962 0
-0.012090 -0.071550 0
-0.004566 -0.028306 0
-0.028382 -0.159683 0
-0.025476 -0.143333 0
-0.031289 -0.176039 0
+0.022046 +0.268151 0
+0.016368 +0.237382 0
+0.026983 +0.275883 0
+0.024602 +0.211748 0
+0.030282 +0.260640 0
+0.013694 +0.117862 0
+0.000000 +0.000000 0
+0.000000 +0.000000 0
+0.000000 +0.000000 0
+0.021554 +0.244210 0
+0.020467 +0.231040 0
+0.022361 +0.254449 0
+0.024599 +0.271979 0
+0.023835 +0.267996 0
+0.025156 +0.273489 0
+0.023920 +0.254210 0
+0.024864 +0.264949 0
+0.022679 +0.240447 0
+0.020514 +0.223894 0
+0.020936 +0.225002 0
+0.019907 +0.220602 0
+0.017903 +0.213320 0
+0.016460 +0.193086 0
+0.019532 +0.233896 0
+0.024438 +0.274527 0
+0.022913 +0.266035 0
+0.025646 +0.277123 0
+0.023553 +0.237362 0
+0.025348 +0.258187 0
+0.020993 +0.212576 0
+0.014796 +0.160451 0
+0.016090 +0.169679 0
+0.014638 +0.163383 0
+0.017252 +0.195965 0
+0.018206 +0.205824 0
+0.016246 +0.185511 0
+0.022190 +0.258318 0
+0.022573 +0.260384 0
+0.021739 +0.255479 0
+0.025898 +0.273652 0
+0.025734 +0.273501 0
+0.025985 +0.272996 0
+0.019853 +0.207159 0
+0.020545 +0.215862 0
+0.019103 +0.197838 0
+0.005969 +0.073169 0
+0.010116 +0.119575 0
+0.002662 +0.033904 0
+0.016000 +0.222319 0
+0.018425 +0.234522 0
+0.013550 +0.209895 0
+0.028264 +0.270729 0
+0.026744 +0.268029 0
+0.030008 +0.273230 0
+0.009429 +0.088648 0
+0.013743 +0.135531 0
+0.004896 +0.044031 0
-0.012595 +0.002477 0
-0.015503 +0.003048 0
-0.007010 +0.001379 0
+0.024602 +0.211748 0
+0.013694 +0.117862 0
+0.030282 +0.260640 0
+0.012124 +0.246065 0
+0.013546 +0.256182 0
+0.010510 +0.232998 0
+0.010834 +0.225798 0
+0.009811 +0.222587 0
+0.011784 +0.226802 0
+0.016156 +0.255736 0
+0.014495 +0.242056 0
+0.017595 +0.266379 0
+0.016996 +0.273474 0
+0.017958 +0.274904 0
+0.015922 +0.269552 0
+0.008387 +0.215191 0
+0.011272 +0.235520 0
+0.005892 +0.195164 0
+0.004484 +0.162478 0
+0.003582 +0.165557 0
+0.007032 +0.171460 0
+0.017988 +0.238456 0
+0.014564 +0.213840 0
+0.020225 +0.259194 0
+0.019120 +0.275573 0
+0.020635 +0.278108 0
+0.016906 +0.267216 0
+0.014563 +0.259818 0
+0.014682 +0.261936 0
+0.014401 +0.256922 0
+0.006436 +0.198092 0
+0.007588 +0.207912 0
+0.005263 +0.187671 0
+0.011701 +0.208762 0
+0.012191 +0.217505 0
+0.011176 +0.199397 0
+0.020070 +0.274798 0
+0.019465 +0.274734 0
+0.020617 +0.274052 0
+0.012500 +0.223008 0
+0.013203 +0.235549 0
+0.011784 +0.210242 0
-0.007622 +0.075841 0
-0.002083 +0.121974 0
-0.012321 +0.036850 0
+0.005017 +0.089515 0
+0.007664 +0.136726 0
+0.002494 +0.044503 0
+0.027060 +0.270966 0
+0.023974 +0.268574 0
+0.029704 +0.273290 0
-0.039857 -0.264648 0
-0.038292 -0.233071 0
-0.036897 -0.273934 0
-0.024602 -0.211748 0
-0.030282 -0.260640 0
-0.013694 -0.117862 0
-0.044318 -0.239734 0
-0.042892 -0.226630 0
-0.045259 -0.249946 0
-0.045891 -0.267792 0
-0.046026 -0.263632 0
-0.045296 -0.269528 0
-0.042664 -0.250524 0
-0.043707 -0.261244 0
-0.041142 -0.236816 0
-0.040946 -0.219876 0
-0.040267 -0.221201 0
-0.041194 -0.216416 0
-0.040874 -0.208802 0
-0.038708 -0.188711 0
-0.042736 -0.229333 0
-0.044339 -0.270614 0
-0.044555 -0.261779 0
-0.043467 -0.273618 0
-0.036987 -0.234720 0
-0.039562 -0.255392 0
-0.034666 -0.209888 0
-0.032628 -0.156944 0
-0.032235 -0.166504 0
-0.034189 -0.159539 0
-0.038854 -0.191718 0
-0.039984 -0.201541 0
-0.037607 -0.181311 0
-0.045113 -0.253810 0
-0.045481 -0.255880 0
-0.044610 -0.250982 0
-0.043255 -0.270238 0
-0.043819 -0.269945 0
-0.042563 -0.269736 0
-0.036248 -0.203935 0
-0.037766 -0.212476 0
-0.034622 -0.194786 0
-0.024511 -0.069523 0
-0.029700 -0.115724 0
-0.020142 -0.030466 0
-0.038721 -0.217851 0
-0.040899 -0.230102 0
-0.036505 -0.205381 0
-0.035706 -0.269266 0
-0.038112 -0.265793 0
-0.033708 -0.272502 0
-0.015543 -0.087446 0
-0.023740 -0.133565 0
-0.007727 -0.043474 0
+0.000000 +0.000000 0
+0.000000 +0.000000 0
+0.000000 +0.000000 0
-0.024602 -0.211748 0
-0.013694 -0.117862 0
-0.030282 -0.260640 0
-0.034889 -0.241588 0
-0.036443 -0.251680 0
-0.032934 -0.228588 0
-0.031266 -0.221780 0
-0.031098 -0.218401 0
-0.031115 -0.223000 0
-0.034900 -0.252051 0
-0.032959 -0.238426 0
-0.036437 -0.262674 0
-0.038288 -0.269287 0
-0.038099 -0.270944 0
-0.038113 -0.265188 0
-0.031359 -0.210673 0
-0.034477 -0.230957 0
-0.028141 -0.190789 0
-0.022316 -0.158972 0
-0.023133 -0.161713 0
-0.023177 -0.168286 0
-0.031423 -0.235815 0
-0.028237 -0.211152 0
-0.034439 -0.256399 0
-0.039021 -0.271659 0
-0.038456 -0.274604 0
-0.038548 -0.262960 0
-0.037486 -0.255310 0
-0.037590 -0.257431 0
-0.037271 -0.252425 0
-0.028038 -0.193844 0
-0.029366 -0.203629 0
-0.026624 -0.183471 0
-0.028096 -0.205538 0
-0.029412 -0.214119 0
-0.026695 -0.196345 0
-0.037427 -0.271384 0
-0.037549 -0.271178 0
-0.037195 -0.270792 0
-0.035221 -0.218540 0
-0.035677 -0.231129 0
-0.034739 -0.205728 0
-0.010920 -0.072195 0
-0.017501 -0.118123 0
-0.005159 -0.033413 0
-0.011131 -0.088313 0
-0.017661 -0.134760 0
-0.005326 -0.043947 0
-0.034503 -0.269503 0
-0.035341 -0.266338 0
-0.033404 -0.272562 0
+0.039857 +0.264648 0
+0.036897 +0.273934 0
+0.038292 +0.233071 0
+0.023959 +0.148438 0
+0.030546 +0.182504 0
+0.013118 +0.082666 0
+0.000000 +0.000000 0
+0.000000 +0.000000 0
+0.000000 +0.000000 0
+0.034900 +0.252051 0
+0.032959 +0.238426 0
+0.036437 +0.262674 0
+0.038288 +0.269287 0
+0.038099 +0.270944 0
+0.038113 +0.265188 0
+0.034889 +0.241588 0
+0.036443 +0.251680 0
+0.032934 +0.228588 0
+0.031266 +0.221780 0
+0.031098 +0.218401 0
+0.031115 +0.223000 0
+0.031423 +0.235815 0
+0.028237 +0.211152 0
+0.034439 +0.256399 0
+0.039021 +0.271659 0
+0.038456 +0.274604 0
+0.038548 +0.262960 0
+0.031359 +0.210673 0
+0.034477 +0.230957 0
+0.028141 +0.190789 0
+0.022316 +0.158972 0
+0.023133 +0.161713 0
+0.023177 +0.168286 0
+0.028096 +0.205538 0
+0.029412 +0.214119 0
+0.026695 +0.196345 0
+0.037427 +0.271384 0
+0.037549 +0.271178 0
+0.037195 +0.270792 0
+0.037486 +0.255310 0
+0.037590 +0.257431 0
+0.037271 +0.252425 0
+0.028038 +0.193844 0
+0.029366 +0.203629 0
+0.026624 +0.183471 0
+0.011131 +0.088313 0
+0.017661 +0.134760 0
+0.005326 +0.043947 0
+0.034503 +0.269503 0
+0.035341 +0.266338 0
+0.033404 +0.272562 0
+0.035221 +0.218540 0
+0.035677 +0.231129 0
+0.034739 +0.205728 0
+0.010920 +0.072195 0
+0.017501 +0.118123 0
+0.005159 +0.033413 0
+0.012595 -0.002477 0
+0.007010 -0.001379 0
+0.015503 -0.003048 0
+0.033241 +0.146613 0
+0.026034 +0.080126 0
+0.035404 +0.181549 0
+0.042664 +0.250524 0
+0.043707 +0.261244 0
+0.041142 +0.236816 0
+0.040946 +0.219876 0
+0.040267 +0.221201 0
+0.041194 +0.216416 0
+0.044318 +0.239734 0
+0.042892 +0.226630 0
+0.045259 +0.249946 0
+0.045891 +0.267792 0
+0.046026 +0.263632 0
+0.045296 +0.269528 0
+0.036987 +0.234720 0
+0.039562 +0.255392 0
+0.034666 +0.209888 0
+0.032628 +0.156944 0
+0.032235 +0.166504 0
+0.034189 +0.159539 0
+0.040874 +0.208802 0
+0.038708 +0.188711 0
+0.042736 +0.229333 0
+0.044339 +0.270614 0
+0.044555 +0.261779 0
+0.043467 +0.273618 0
+0.043255 +0.270238 0
+0.043819 +0.269945 0
+0.042563 +0.269736 0
+0.036248 +0.203935 0
+0.037766 +0.212476 0
+0.034622 +0.194786 0
+0.038854 +0.191718 0
+0.039984 +0.201541 0
+0.037607 +0.181311 0
+0.045113 +0.253810 0
+0.045481 +0.255880 0
+0.044610 +0.250982 0
+0.035706 +0.269266 0
+0.038112 +0.265793 0
+0.033708 +0.272502 0
+0.015543 +0.087446 0
+0.023740 +0.133565 0
+0.007727 +0.043474 0
+0.024511 +0.069523 0
+0.029700 +0.115724 0
+0.020142 +0.030466 0
+0.038721 +0.217851 0
+0.040899 +0.230102 0
+0.036505 +0.205381 0
-0.022046 -0.268151 0
-0.026983 -0.275883 0
-0.016368 -0.237382 0
-0.001551 -0.152844 0
-0.007422 -0.187051 0
+0.006668 -0.086557 0
-0.016156 -0.255736 0
-0.014495 -0.242056 0
-0.017595 -0.266379 0
-0.016996 -0.273474 0
-0.017958 -0.274904 0
-0.015922 -0.269552 0
-0.012124 -0.246065 0
-0.013546 -0.256182 0
-0.010510 -0.232998 0
-0.010834 -0.225798 0
-0.009811 -0.222587 0
-0.011784 -0.226802 0
-0.017988 -0.238456 0
-0.014564 -0.213840 0
-0.020225 -0.259194 0
-0.019120 -0.275573 0
-0.020635 -0.278108 0
-0.016906 -0.267216 0
-0.008387 -0.215191 0
-0.011272 -0.235520 0
-0.005892 -0.195164 0
-0.004484 -0.162478 0
-0.003582 -0.165557 0
-0.007032 -0.171460 0
-0.011701 -0.208762 0
-0.012191 -0.217505 0
-0.011176 -0.199397 0
-0.020070 -0.274798 0
-0.019465 -0.274734 0
-0.020617 -0.274052 0
-0.014563 -0.259818 0
-0.014682 -0.261936 0
-0.014401 -0.256922 0
-0.006436 -0.198092 0
-0.007588 -0.207912 0
-0.005263 -0.187671 0
-0.005017 -0.089515 0
-0.007664 -0.136726 0
-0.002494 -0.044503 0
-0.027060 -0.270966 0
-0.023974 -0.268574 0
-0.029704 -0.273290 0
-0.012500 -0.223008 0
-0.013203 -0.235549 0
-0.011784 -0.210242 0
+0.007622 -0.075841 0
+0.002083 -0.121974 0
+0.012321 -0.036850 0
+0.000000 +0.000000 0
+0.000000 +0.000000 0
+0.000000 +0.000000 0
-0.010833 -0.151019 0
-0.006248 -0.084017 0
-0.012280 -0.186096 0
-0.023920 -0.254210 0
-0.024864 -0.264949 0
-0.022679 -0.240447 0
-0.020514 -0.223894 0
-0.020936 -0.225002 0
-0.019907 -0.220602 0
-0.021554 -0.244210 0
-0.020467 -0.231040 0
-0.022361 -0.254449 0
-0.024599 -0.271979 0
-0.023835 -0.267996 0
-0.025156 -0.273489 0
-0.023553 -0.237362 0
-0.025348 -0.258187 0
-0.020993 -0.212576 0
-0.014796 -0.160451 0
-0.016090 -0.169679 0
-0.014638 -0.163383 0
-0.017903 -0.213320 0
-0.016460 -0.193086 0
-0.019532 -0.233896 0
-0.024438 -0.274527 0
-0.022913 -0.266035 0
-0.025646 -0.277123 0
-0.025898 -0.273652 0
-0.025734 -0.273501 0
-0.025985 -0.272996 0
-0.019853 -0.207159 0
-0.020545 -0.215862 0
-0.019103 -0.197838 0
-0.017252 -0.195965 0
-0.018206 -0.205824 0
-0.016246 -0.185511 0
-0.022190 -0.258318 0
-0.022573 -0.260384 0
-0.021739 -0.255479 0
-0.028264 -0.270729 0
-0.026744 -0.268029 0
-0.030008 -0.273230 0
-0.009429 -0.088648 0
-0.013743 -0.135531 0
-0.004896 -0.044031 0
-0.005969 -0.073169 0
-0.010116 -0.119575 0
-0.002662 -0.033904 0
-0.016000 -0.222319 0
-0.018425 -0.234522 0
-0.013550 -0.209895 0
+0.021726 +0.108595 0
+0.028802 +0.151397 0
+0.011667 +0.056777 0
+0.000000 +0.000000 0
+0.000000 +0.000000 0
+0.000000 +0.000000 0
+0.000000 +0.000000 0
+0.000000 +0.000000 0
+0.000000 +0.000000 0
+0.020038 +0.113770 0
+0.018874 +0.107574 0
+0.020986 +0.118637 0
+0.019869 +0.110754 0
+0.020893 +0.116976 0
+0.018648 +0.103529 0
+0.015991 +0.089302 0
+0.016716 +0.092937 0
+0.015082 +0.084559 0
+0.016100 +0.091245 0
+0.015130 +0.085420 0
+0.016898 +0.096184 0
+0.020971 +0.121267 0
+0.018352 +0.106535 0
+0.022744 +0.129971 0
+0.020434 +0.111685 0
+0.022414 +0.124095 0
+0.017813 +0.096934 0
+0.011280 +0.062446 0
+0.012842 +0.070514 0
+0.010544 +0.058865 0
+0.011446 +0.065415 0
+0.010619 +0.060199 0
+0.013127 +0.075594 0
+0.016653 +0.095855 0
+0.017119 +0.098218 0
+0.016138 +0.093218 0
+0.022588 +0.127081 0
+0.022175 +0.124762 0
+0.022935 +0.129037 0
+0.016299 +0.089538 0
+0.016807 +0.092650 0
+0.015742 +0.086146 0
+0.012172 +0.068479 0
+0.013093 +0.073665 0
+0.011210 +0.063072 0
+0.008569 +0.051962 0
+0.012090 +0.071550 0
+0.004566 +0.028306 0
+0.028382 +0.159683 0
+0.025476 +0.143333 0
+0.031289 +0.176039 0
+0.007955 +0.041005 0
+0.011512 +0.061236 0
+0.004137 +0.020660 0
+0.002513 +0.014140 0
+0.005785 +0.032547 0
+0.000634 +0.003569 0
+0.012595 -0.002477 0
+0.015503 -0.003048 0
+0.007010 -0.001379 0
+0.000000 +0.000000 0
+0.000000 +0.000000 0
+0.000000 +0.000000 0
+0.029468 +0.111915 0
+0.029801 +0.116904 0
+0.028832 +0.105616 0
+0.025780 +0.089342 0
+0.026994 +0.094198 0
+0.024282 +0.083621 0
+0.023755 +0.087775 0
+0.023265 +0.082950 0
+0.023986 +0.091508 0
+0.027472 +0.109259 0
+0.025845 +0.102114 0
+0.028806 +0.115420 0
+0.030486 +0.119396 0
+0.031003 +0.128347 0
+0.028919 +0.104457 0
+0.021758 +0.063387 0
+0.024183 +0.073420 0
+0.019677 +0.058417 0
+0.016845 +0.061352 0
+0.016973 +0.057600 0
+0.017965 +0.069507 0
+0.025752 +0.110639 0