# vtk DataFile Version 2.0
MyTitle
ASCII
DATASET UNSTRUCTURED_GRID
POINTS 1761 double
0.000000 0.000000 0.000000
1.000000 0.000000 0.000000
1.000000 1.000000 0.000000
0.000000 1.000000 0.000000
0.420000 0.420000 0.000000
0.580000 0.420000 0.000000
0.580000 0.580000 0.000000
0.420000 0.580000 0.000000
0.358579 0.358579 0.000000
0.641421 0.358579 0.000000
0.641421 0.641421 0.000000
0.358579 0.641421 0.000000
2.000000 0.000000 0.000000
2.000000 1.000000 0.000000
1.420000 0.420000 0.000000
1.580000 0.420000 0.000000
1.580000 0.580000 0.000000
1.420000 0.580000 0.000000
1.358579 0.358579 0.000000
1.641421 0.358579 0.000000
1.641421 0.641421 0.000000
1.358579 0.641421 0.000000
3.000000 0.000000 0.000000
3.000000 1.000000 0.000000
2.420000 0.420000 0.000000
2.580000 0.420000 0.000000
2.580000 0.580000 0.000000
2.420000 0.580000 0.000000
2.358579 0.358579 0.000000
2.641421 0.358579 0.000000
2.641421 0.641421 0.000000
2.358579 0.641421 0.000000
4.000000 0.000000 0.000000
4.000000 1.000000 0.000000
3.420000 0.420000 0.000000
3.580000 0.420000 0.000000
3.580000 0.580000 0.000000
3.420000 0.580000 0.000000
3.358579 0.358579 0.000000
3.641421 0.358579 0.000000
3.641421 0.641421 0.000000
3.358579 0.641421 0.000000
1.000000 2.000000 0.000000
0.000000 2.000000 0.000000
0.420000 1.420000 0.000000
0.580000 1.420000 0.000000
0.580000 1.580000 0.000000
0.420000 1.580000 0.000000
0.358579 1.358579 0.000000
0.641421 1.358579 0.000000
0.641421 1.641421 0.000000
0.358579 1.641421 0.000000
2.000000 2.000000 0.000000
1.420000 1.420000 0.000000
1.580000 1.420000 0.000000
1.580000 1.580000 0.000000
1.420000 1.580000 0.000000
1.358579 1.358579 0.000000
1.641421 1.358579 0.000000
1.641421 1.641421 0.000000
1.358579 1.641421 0.000000
3.000000 2.000000 0.000000
2.420000 1.420000 0.000000
2.580000 1.420000 0.000000
2.580000 1.580000 0.000000
2.420000 1.580000 0.000000
2.358579 1.358579 0.000000
2.641421 1.358579 0.000000
2.641421 1.641421 0.000000
2.358579 1.641421 0.000000
4.000000 2.000000 0.000000
3.420000 1.420000 0.000000
3.580000 1.420000 0.000000
3.580000 1.580000 0.000000
3.420000 1.580000 0.000000
3.358579 1.358579 0.000000
3.641421 1.358579 0.000000
3.641421 1.641421 0.000000
3.358579 1.641421 0.000000
1.000000 3.000000 0.000000
0.000000 3.000000 0.000000
0.420000 2.420000 0.000000
0.580000 2.420000 0.000000
0.580000 2.580000 0.000000
0.420000 2.580000 0.000000
0.358579 2.358579 0.000000
0.641421 2.358579 0.000000
0.641421 2.641421 0.000000
0.358579 2.641421 0.000000
2.000000 3.000000 0.000000
1.420000 2.420000 0.000000
1.580000 2.420000 0.000000
1.580000 2.580000 0.000000
1.420000 2.580000 0.000000
1.358579 2.358579 0.000000
1.641421 2.358579 0.000000
1.641421 2.641421 0.000000
1.358579 2.641421 0.000000
3.000000 3.000000 0.000000
2.420000 2.420000 0.000000
2.580000 2.420000 0.000000
2.580000 2.580000 0.000000
2.420000 2.580000 0.000000
2.358579 2.358579 0.000000
2.641421 2.358579 0.000000
2.641421 2.641421 0.000000
2.358579 2.641421 0.000000
4.000000 3.000000 0.000000
3.420000 2.420000 0.000000
3.580000 2.420000 0.000000
3.580000 2.580000 0.000000
3.420000 2.580000 0.000000
3.358579 2.358579 0.000000
3.641421 2.358579 0.000000
3.641421 2.641421 0.000000
3.358579 2.641421 0.000000
1.000000 4.000000 0.000000
0.000000 4.000000 0.000000
0.420000 3.420000 0.000000
0.580000 3.420000 0.000000
0.580000 3.580000 0.000000
0.420000 3.580000 0.000000
0.358579 3.358579 0.000000
0.641421 3.358579 0.000000
0.641421 3.641421 0.000000
0.358579 3.641421 0.000000
2.000000 4.000000 0.000000
1.420000 3.420000 0.000000
1.580000 3.420000 0.000000
1.580000 3.580000 0.000000
1.420000 3.580000 0.000000
1.358579 3.358579 0.000000
1.641421 3.358579 0.000000
1.641421 3.641421 0.000000
1.358579 3.641421 0.000000
3.000000 4.000000 0.000000
2.420000 3.420000 0.000000
2.580000 3.420000 0.000000
2.580000 3.580000 0.000000
2.420000 3.580000 0.000000
2.358579 3.358579 0.000000
2.641421 3.358579 0.000000
2.641421 3.641421 0.000000
2.358579 3.641421 0.000000
4.000000 4.000000 0.000000
3.420000 3.420000 0.000000
3.580000 3.420000 0.000000
3.580000 3.580000 0.000000
3.420000 3.580000 0.000000
3.358579 3.358579 0.000000
3.641421 3.358579 0.000000
3.641421 3.641421 0.000000
3.358579 3.641421 0.000000
0.500000 0.000000 0.000000
0.250000 0.000000 0.000000
0.750000 0.000000 0.000000
1.000000 0.500000 0.000000
1.000000 0.250000 0.000000
1.000000 0.750000 0.000000
0.500000 1.000000 0.000000
0.750000 1.000000 0.000000
0.250000 1.000000 0.000000
0.000000 0.500000 0.000000
0.000000 0.750000 0.000000
0.000000 0.250000 0.000000
0.500000 0.420000 0.000000
0.460000 0.420000 0.000000
0.540000 0.420000 0.000000
0.580000 0.500000 0.000000
0.580000 0.460000 0.000000
0.580000 0.540000 0.000000
0.500000 0.580000 0.000000
0.540000 0.580000 0.000000
0.460000 0.580000 0.000000
0.420000 0.500000 0.000000
0.420000 0.540000 0.000000
0.420000 0.460000 0.000000
0.500000 0.300001 0.000000
0.423464 0.315225 0.000000
0.576536 0.315225 0.000000
0.699999 0.500000 0.000000
0.684775 0.423464 0.000000
0.684775 0.576536 0.000000
0.500000 0.699999 0.000000
0.576536 0.684775 0.000000
0.423464 0.684775 0.000000
0.300001 0.500000 0.000000
0.315225 0.576536 0.000000
0.315225 0.423464 0.000000
0.389290 0.389290 0.000000
0.404645 0.404645 0.000000
0.373934 0.373934 0.000000
0.610710 0.389290 0.000000
0.595355 0.404645 0.000000
0.626066 0.373934 0.000000
0.610710 0.610710 0.000000
0.595355 0.595355 0.000000
0.626066 0.626066 0.000000
0.389290 0.610710 0.000000
0.404645 0.595355 0.000000
0.373934 0.626066 0.000000
0.179290 0.179290 0.000000
0.268934 0.268934 0.000000
0.089645 0.089645 0.000000
0.820710 0.179290 0.000000
0.731066 0.268934 0.000000
0.910355 0.089645 0.000000
0.820710 0.820710 0.000000
0.731066 0.731066 0.000000
0.910355 0.910355 0.000000
0.179290 0.820710 0.000000
0.268934 0.731066 0.000000
0.089645 0.910355 0.000000
1.500000 0.000000 0.000000
1.250000 0.000000 0.000000
1.750000 0.000000 0.000000
2.000000 0.500000 0.000000
2.000000 0.250000 0.000000
2.000000 0.750000 0.000000
1.500000 1.000000 0.000000
1.750000 1.000000 0.000000
1.250000 1.000000 0.000000
1.500000 0.420000 0.000000
1.460000 0.420000 0.000000
1.540000 0.420000 0.000000
1.580000 0.500000 0.000000
1.580000 0.460000 0.000000
1.580000 0.540000 0.000000
1.500000 0.580000 0.000000
1.540000 0.580000 0.000000
1.460000 0.580000 0.000000
1.420000 0.500000 0.000000
1.420000 0.540000 0.000000
1.420000 0.460000 0.000000
1.500000 0.300001 0.000000
1.423464 0.315225 0.000000
1.576536 0.315225 0.000000
1.699999 0.500000 0.000000
1.684775 0.423464 0.000000
1.684775 0.576536 0.000000
1.500000 0.699999 0.000000
1.576536 0.684775 0.000000
1.423464 0.684775 0.000000
1.300001 0.500000 0.000000
1.315225 0.576536 0.000000
1.315225 0.423464 0.000000
1.389290 0.389290 0.000000
1.404645 0.404645 0.000000
1.373934 0.373934 0.000000
1.610710 0.389290 0.000000
1.595355 0.404645 0.000000
1.626066 0.373934 0.000000
1.610710 0.610710 0.000000
1.595355 0.595355 0.000000
1.626066 0.626066 0.000000
1.389290 0.610710 0.000000
1.404645 0.595355 0.000000
1.373934 0.626066 0.000000
1.179290 0.179290 0.000000
1.268934 0.268934 0.000000
1.089645 0.089645 0.000000
1.820710 0.179290 0.000000
1.731066 0.268934 0.000000
1.910355 0.089645 0.000000
1.820710 0.820710 0.000000
1.731066 0.731066 0.000000
1.910355 0.910355 0.000000
1.179290 0.820710 0.000000
1.268934 0.731066 0.000000
1.089645 0.910355 0.000000
2.500000 0.000000 0.000000
2.250000 0.000000 0.000000
2.750000 0.000000 0.000000
3.000000 0.500000 0.000000
3.000000 0.250000 0.000000
3.000000 0.750000 0.000000
2.500000 1.000000 0.000000
2.750000 1.000000 0.000000
2.250000 1.000000 0.000000
2.500000 0.420000 0.000000
2.460000 0.420000 0.000000
2.540000 0.420000 0.000000
2.580000 0.500000 0.000000
2.580000 0.460000 0.000000
2.580000 0.540000 0.000000
2.500000 0.580000 0.000000
2.540000 0.580000 0.000000
2.460000 0.580000 0.000000
2.420000 0.500000 0.000000
2.420000 0.540000 0.000000
2.420000 0.460000 0.000000
2.500000 0.300001 0.000000
2.423464 0.315225 0.000000
2.576536 0.315225 0.000000
2.699999 0.500000 0.000000
2.684775 0.423464 0.000000
2.684775 0.576536 0.000000
2.500000 0.699999 0.000000
2.576536 0.684775 0.000000
2.423464 0.684775 0.000000
2.300001 0.500000 0.000000
2.315225 0.576536 0.000000
2.315225 0.423464 0.000000
2.389289 0.389289 0.000000
2.404645 0.404645 0.000000
2.373934 0.373934 0.000000
2.610711 0.389289 0.000000
2.595355 0.404645 0.000000
2.626066 0.373934 0.000000
2.610711 0.610711 0.000000
2.595355 0.595355 0.000000
2.626066 0.626066 0.000000
2.389289 0.610711 0.000000
2.404645 0.595355 0.000000
2.373934 0.626066 0.000000
2.179290 0.179290 0.000000
2.268934 0.268934 0.000000
2.089645 0.089645 0.000000
2.820710 0.179290 0.000000
2.731066 0.268934 0.000000
2.910355 0.089645 0.000000
2.820710 0.820710 0.000000
2.731066 0.731066 0.000000
2.910355 0.910355 0.000000
2.179290 0.820710 0.000000
2.268934 0.731066 0.000000
2.089645 0.910355 0.000000
3.500000 0.000000 0.000000
3.250000 0.000000 0.000000
3.750000 0.000000 0.000000
4.000000 0.500000 0.000000
4.000000 0.250000 0.000000
4.000000 0.750000 0.000000
3.500000 1.000000 0.000000
3.750000 1.000000 0.000000
3.250000 1.000000 0.000000
3.500000 0.420000 0.000000
3.460000 0.420000 0.000000
3.540000 0.420000 0.000000
3.580000 0.500000 0.000000
3.580000 0.460000 0.000000
3.580000 0.540000 0.000000
3.500000 0.580000 0.000000
3.540000 0.580000 0.000000
3.460000 0.580000 0.000000
3.420000 0.500000 0.000000
3.420000 0.540000 0.000000
3.420000 0.460000 0.000000
3.500000 0.300001 0.000000
3.423464 0.315225 0.000000
3.576536 0.315225 0.000000
3.699999 0.500000 0.000000
3.684775 0.423464 0.000000
3.684775 0.576536 0.000000
3.500000 0.699999 0.000000
3.576536 0.684775 0.000000
3.423464 0.684775 0.000000
3.300001 0.500000 0.000000
3.315225 0.576536 0.000000
3.315225 0.423464 0.000000
3.389289 0.389289 0.000000
3.404645 0.404645 0.000000
3.373934 0.373934 0.000000
3.610711 0.389289 0.000000
3.595355 0.404645 0.000000
3.626066 0.373934 0.000000
3.610711 0.610711 0.000000
[...]
POINT_DATA 1761
VECTORS sol double
+0.000000 +0.000000 0
+0.000000 +0.000000 0
+0.000038 -0.010500 0
+0.000000 +0.000000 0
+0.000052 -0.014452 0
+0.011229 -0.013259 0
+0.000068 -0.018788 0
-0.011109 -0.019664 0
+0.000039 -0.010683 0
+0.017591 -0.008670 0
+0.000064 -0.017640 0
-0.017492 -0.018730 0
+0.000000 +0.000000 0
+0.175330 +0.050274 0
+0.252545 +0.055936 0
+0.274926 +0.063025 0
+0.302596 +0.070287 0
+0.274932 +0.061366 0
+0.195976 +0.042480 0
+0.228802 +0.052809 0
+0.277048 +0.065726 0
+0.228812 +0.050055 0
+0.000000 +0.000000 0
+0.000038 -0.010500 0
+0.274926 +0.063025 0
+0.252545 +0.055936 0
+0.274932 +0.061366 0
+0.302596 +0.070287 0
+0.228802 +0.052809 0
+0.195976 +0.042480 0
+0.228812 +0.050055 0
+0.277048 +0.065726 0
+0.000000 +0.000000 0
+0.000000 +0.000000 0
+0.011229 -0.013259 0
+0.000052 -0.014452 0
-0.011109 -0.019664 0
+0.000068 -0.018788 0
+0.017591 -0.008670 0
+0.000039 -0.010683 0
-0.017492 -0.018730 0
+0.000064 -0.017640 0
-0.175330 -0.050274 0
+0.000000 +0.000000 0
-0.252426 -0.088859 0
-0.274805 -0.096266 0
-0.302477 -0.103211 0
-0.274811 -0.094606 0
-0.195877 -0.069880 0
-0.228700 -0.081132 0
-0.276949 -0.093127 0
-0.228710 -0.078378 0
-0.000076 +0.021001 0
-0.000046 +0.012793 0
+0.038823 +0.027611 0
-0.000074 +0.020448 0
-0.038942 +0.005313 0
-0.000029 +0.007929 0
+0.063481 +0.031917 0
-0.000074 +0.020394 0
-0.063580 -0.004517 0
-0.175330 -0.050274 0
+0.038823 +0.027611 0
-0.000046 +0.012793 0
-0.038942 +0.005313 0
-0.000074 +0.020448 0
+0.063481 +0.031917 0
-0.000029 +0.007929 0
-0.063580 -0.004517 0
-0.000074 +0.020394 0
+0.000000 +0.000000 0
-0.274805 -0.096266 0
-0.252426 -0.088859 0
-0.274811 -0.094606 0
-0.302477 -0.103211 0
-0.228700 -0.081132 0
-0.195877 -0.069880 0
-0.228710 -0.078378 0
-0.276949 -0.093127 0
+0.000038 -0.010500 0
+0.000000 +0.000000 0
-0.274811 -0.094606 0
-0.302477 -0.103211 0
-0.274805 -0.096266 0
-0.252426 -0.088859 0
-0.228710 -0.078378 0
-0.276949 -0.093127 0
-0.228700 -0.081132 0
-0.195877 -0.069880 0
+0.175330 +0.050274 0
-0.038942 +0.005313 0
-0.000074 +0.020448 0
+0.038823 +0.027611 0
-0.000046 +0.012793 0
-0.063580 -0.004517 0
-0.000074 +0.020394 0
+0.063481 +0.031917 0
-0.000029 +0.007929 0
+0.000038 -0.010500 0
-0.000074 +0.020448 0
-0.038942 +0.005313 0
-0.000046 +0.012793 0
+0.038823 +0.027611 0
-0.000074 +0.020394 0
-0.063580 -0.004517 0
-0.000029 +0.007929 0
+0.063481 +0.031917 0
+0.000000 +0.000000 0
-0.302477 -0.103211 0
-0.274811 -0.094606 0
-0.252426 -0.088859 0
-0.274805 -0.096266 0
-0.276949 -0.093127 0
-0.228710 -0.078378 0
-0.195877 -0.069880 0
-0.228700 -0.081132 0
+0.000000 +0.000000 0
+0.000000 +0.000000 0
-0.011109 -0.019664 0
+0.000068 -0.018788 0
+0.011229 -0.013259 0
+0.000052 -0.014452 0
-0.017492 -0.018730 0
+0.000064 -0.017640 0
+0.017591 -0.008670 0
+0.000039 -0.010683 0
+0.000000 +0.000000 0
+0.274932 +0.061366 0
+0.302596 +0.070287 0
+0.274926 +0.063025 0
+0.252545 +0.055936 0
+0.228812 +0.050055 0
+0.277048 +0.065726 0
+0.228802 +0.052809 0
+0.195976 +0.042480 0
+0.000000 +0.000000 0
+0.302596 +0.070287 0
+0.274932 +0.061366 0
+0.252545 +0.055936 0
+0.274926 +0.063025 0
+0.277048 +0.065726 0
+0.228812 +0.050055 0
+0.195976 +0.042480 0
+0.228802 +0.052809 0
+0.000000 +0.000000 0
+0.000068 -0.018788 0
-0.011109 -0.019664 0
+0.000052 -0.014452 0
+0.011229 -0.013259 0
+0.000064 -0.017640 0
-0.017492 -0.018730 0
+0.000039 -0.010683 0
+0.017591 -0.008670 0
+0.000000 +0.000000 0
+0.000000 +0.000000 0
+0.000000 +0.000000 0
+0.083308 +0.010622 0
+0.055888 +0.007982 0
+0.059818 +0.003694 0
-0.083212 -0.037126 0
-0.059720 -0.030582 0
-0.055830 -0.024052 0
+0.000000 +0.000000 0
+0.000000 +0.000000 0
+0.000000 +0.000000 0
+0.004718 -0.014721 0
+0.002134 -0.014801 0
+0.007770 -0.014203 0
+0.007072 -0.016282 0
+0.009520 -0.014822 0
+0.003893 -0.017613 0
-0.006940 -0.020300 0
-0.003757 -0.019806 0
-0.009393 -0.020245 0
-0.004602 -0.017394 0
-0.007651 -0.018625 0
-0.002022 -0.015993 0
+0.007039 -0.009331 0
+0.003215 -0.009993 0
+0.011868 -0.008981 0
+0.021131 -0.010501 0
+0.021520 -0.009102 0
+0.012897 -0.013725 0
-0.021012 -0.022585 0
-0.012770 -0.021085 0
-0.021409 -0.021412 0
-0.006957 -0.013344 0
-0.011779 -0.015762 0
-0.003136 -0.011814 0
+0.000046 -0.012674 0
+0.000049 -0.013587 0
+0.000042 -0.011693 0
+0.014692 -0.011052 0
+0.013041 -0.012174 0
+0.016319 -0.009858 0
+0.000067 -0.018418 0
+0.000068 -0.018651 0
+0.000066 -0.018095 0
-0.014582 -0.019446 0
-0.012926 -0.019619 0
-0.016214 -0.019186 0
+0.000009 -0.002588 0
+0.000022 -0.005975 0
+0.000002 -0.000660 0
+0.024197 +0.000691 0
+0.022895 -0.003092 0
+0.016702 +0.001701 0
+0.000052 -0.014438 0
+0.000057 -0.015763 0
+0.000046 -0.012767 0
-0.024151 -0.013173 0
-0.022826 -0.016202 0
-0.016679 -0.007871 0
+0.000000 +0.000000 0
+0.000000 +0.000000 0
+0.000000 +0.000000 0
+0.221312 +0.053476 0
+0.134193 +0.031781 0
+0.224510 +0.057209 0
+0.138028 +0.036295 0
+0.168628 +0.047475 0
+0.074424 +0.014580 0
+0.272838 +0.061600 0
+0.264857 +0.059265 0
+0.276205 +0.062862 0
+0.300806 +0.069339 0
+0.290738 +0.066819 0
+0.304752 +0.070495 0
+0.298463 +0.068111 0
+0.303006 +0.069791 0
+0.288995 +0.065271 0
+0.275188 +0.061156 0
+0.277958 +0.061897 0
+0.266606 +0.059144 0
+0.196344 +0.044112 0
+0.193933 +0.042843 0
+0.209790 +0.047822 0
+0.269274 +0.063336 0
+0.251626 +0.058662 0
+0.278847 +0.066033 0
+0.255202 +0.059143 0
+0.269205 +0.063458 0
+0.241973 +0.054534 0
+0.210431 +0.044618 0
+0.219462 +0.046923 0
+0.203582 +0.043483 0
+0.226320 +0.049631 0
+0.239910 +0.052879 0
+0.211561 +0.046126 0
+0.254662 +0.058579 0
+0.265485 +0.060967 0
+0.242528 +0.055887 0
+0.292948 +0.068736 0
+0.298495 +0.069677 0
+0.285927 +0.067450 0
+0.254670 +0.056342 0
+0.265492 +0.059014 0
+0.242537 +0.053381 0
+0.067413 +0.013082 0
+0.122660 +0.025514 0
+0.027723 +0.004861 0
+0.104228 +0.024397 0
+0.161114 +0.037476 0
+0.051525 +0.012112 0
+0.216931 +0.055955 0
+0.240367 +0.059266 0
+0.196500 +0.053256 0
+0.104250 +0.018338 0
+0.161129 +0.033164 0
+0.051554 +0.004003 0
+0.000000 +0.000000 0
+0.000000 +0.000000 0
+0.000000 +0.000000 0
+0.083308 +0.010622 0
+0.055888 +0.007982 0
+0.059818 +0.003694 0
+0.138028 +0.036295 0
+0.074424 +0.014580 0
+0.168628 +0.047475 0
+0.272838 +0.061600 0
+0.276205 +0.062862 0
+0.264857 +0.059265 0
+0.275188 +0.061156 0
+0.266606 +0.059144 0
+0.277958 +0.061897 0
+0.298463 +0.068111 0
+0.288995 +0.065271 0
+0.303006 +0.069791 0
+0.300806 +0.069339 0
+0.304752 +0.070495 0
+0.290738 +0.066819 0
+0.196344 +0.044112 0
+0.209790 +0.047822 0
+0.193933 +0.042843 0
+0.210431 +0.044618 0
+0.203582 +0.043483 0
+0.219462 +0.046923 0
+0.255202 +0.059143 0
+0.241973 +0.054534 0
+0.269205 +0.063458 0
+0.269274 +0.063336 0
+0.278847 +0.066033 0
+0.251626 +0.058662 0
+0.254662 +0.058579 0
+0.265485 +0.060967 0
+0.242528 +0.055887 0
+0.226320 +0.049631 0
+0.239910 +0.052879 0
+0.211561 +0.046126 0
+0.254670 +0.056342 0
+0.265492 +0.059014 0
+0.242537 +0.053381 0
+0.292948 +0.068736 0
+0.298495 +0.069677 0
+0.285927 +0.067450 0
+0.104228 +0.024397 0
+0.161114 +0.037476 0
+0.051525 +0.012112 0
+0.067413 +0.013082 0
+0.122660 +0.025514 0
+0.027723 +0.004861 0
+0.104250 +0.018338 0
+0.161129 +0.033164 0
+0.051554 +0.004003 0
+0.216931 +0.055955 0
+0.240367 +0.059266 0
+0.196500 +0.053256 0
+0.000000 +0.000000 0
+0.000000 +0.000000 0
+0.000000 +0.000000 0
+0.000000 +0.000000 0
+0.000000 +0.000000 0
+0.000000 +0.000000 0
-0.083212 -0.037126 0
-0.055830 -0.024052 0
-0.059720 -0.030582 0
+0.004718 -0.014721 0
+0.007770 -0.014203 0
+0.002134 -0.014801 0
-0.004602 -0.017394 0
-0.002022 -0.015993 0
-0.007651 -0.018625 0
-0.006940 -0.020300 0
-0.009393 -0.020245 0
-0.003757 -0.019806 0
+0.007072 -0.016282 0
+0.003893 -0.017613 0
+0.009520 -0.014822 0
+0.007039 -0.009331 0
+0.011868 -0.008981 0
+0.003215 -0.009993 0
-0.006957 -0.013344 0
-0.003136 -0.011814 0
-0.011779 -0.015762 0
-0.021012 -0.022585 0
-0.021409 -0.021412 0
-0.012770 -0.021085 0
+0.021131 -0.010501 0
+0.012897 -0.013725 0
+0.021520 -0.009102 0
+0.014692 -0.011052 0
+0.013041 -0.012174 0
+0.016319 -0.009858 0
+0.000046 -0.012674 0
+0.000049 -0.013587 0
+0.000042 -0.011693 0
-0.014582 -0.019446 0
-0.012926 -0.019619 0
-0.016214 -0.019186 0
+0.000067 -0.018418 0
+0.000068 -0.018651 0
+0.000066 -0.018095 0
+0.024197 +0.000691 0
+0.022895 -0.003092 0
+0.016702 +0.001701 0
+0.000009 -0.002588 0
+0.000022 -0.005975 0
+0.000002 -0.000660 0
-0.024151 -0.013173 0
-0.022826 -0.016202 0
-0.016679 -0.007871 0
+0.000052 -0.014438 0
+0.000057 -0.015763 0
+0.000046 -0.012767 0
-0.138005 -0.042854 0
-0.074375 -0.028087 0
-0.168622 -0.049228 0
-0.221240 -0.073422 0
-0.224458 -0.071528 0
-0.134144 -0.045162 0
+0.000000 +0.000000 0
+0.000000 +0.000000 0
+0.000000 +0.000000 0
-0.275059 -0.096621 0
-0.266481 -0.093713 0
-0.277829 -0.097469 0
-0.298336 -0.103015 0
-0.288868 -0.100425 0
-0.302882 -0.103941 0
-0.300684 -0.103132 0
-0.304630 -0.104239 0
-0.290619 -0.099879 0
-0.272717 -0.094832 0
-0.276087 -0.095503 0
-0.264737 -0.092591 0
-0.210317 -0.076027 0
-0.203474 -0.073236 0
-0.219346 -0.078901 0
-0.255100 -0.087181 0
-0.241865 -0.084202 0
-0.269105 -0.090897 0
-0.269174 -0.091059 0
-0.278746 -0.093851 0
-0.251528 -0.085612 0
-0.196256 -0.068463 0
-0.209701 -0.072462 0
-0.193840 -0.068347 0
-0.226209 -0.080128 0
-0.239795 -0.084672 0
-0.211455 -0.075170 0
-0.254549 -0.089671 0
-0.265368 -0.093205 0
-0.242420 -0.085675 0
-0.292838 -0.099233 0
-0.298379 -0.101470 0
-0.285822 -0.096494 0
-0.254557 -0.087434 0
-0.265375 -0.091252 0
-0.242429 -0.083170 0
-0.067368 -0.025564 0
-0.122590 -0.044809 0
-0.027701 -0.011031 0
-0.104166 -0.041423 0
-0.161035 -0.059213 0
-0.051476 -0.025540 0
-0.216886 -0.068437 0
-0.240297 -0.078560 0
-0.196478 -0.059427 0
-0.104188 -0.035364 0
-0.161051 -0.054902 0
-0.051505 -0.017431 0
+0.054697 +0.032233 0
+0.112734 +0.041246 0
+0.014557 +0.024393 0
-0.054817 +0.000831 0
-0.014704 +0.016003 0
-0.112798 -0.023423 0
+0.020907 +0.021232 0
+0.010656 +0.017211 0
+0.030379 +0.024729 0
+0.018547 +0.024464 0
+0.028626 +0.026172 0
+0.008888 +0.022536 0
-0.018685 +0.013789 0
-0.009033 +0.017397 0
-0.028756 +0.009719 0
-0.021017 +0.009211 0
-0.030495 +0.007274 0
-0.010759 +0.011070 0
+0.051818 +0.024362 0
+0.028968 +0.016705 0
+0.063404 +0.029596 0
+0.037712 +0.029219 0
+0.053745 +0.031653 0
+0.019268 +0.025465 0
-0.037846 +0.007554 0
-0.019412 +0.014374 0
-0.053862 +0.000798 0
-0.051887 -0.005374 0
-0.063486 -0.006789 0
-0.029029 +0.000075 0
-0.000038 +0.010437 0
-0.000042 +0.011634 0
-0.000033 +0.009188 0
+0.051936 +0.030157 0
+0.045544 +0.028972 0
+0.058047 +0.031182 0
-0.000075 +0.020655 0
-0.000075 +0.020604 0
-0.000075 +0.020601 0
-0.052047 +0.000341 0
-0.045659 +0.002821 0
-0.058153 -0.002138 0
+0.000013 -0.003471 0
-0.000006 +0.001664 0
+0.000027 -0.007449 0
+0.125321 +0.042182 0
+0.094811 +0.036843 0
+0.152075 +0.046694 0
-0.000074 +0.020497 0
-0.000073 +0.020074 0
-0.000076 +0.020876 0
-0.125367 -0.029700 0
-0.094881 -0.017549 0
-0.152098 -0.040524 0
-0.138005 -0.042854 0
-0.074375 -0.028087 0
-0.168622 -0.049228 0
-0.054817 +0.000831 0
-0.112798 -0.023423 0
-0.014704 +0.016003 0
+0.020907 +0.021232 0
+0.030379 +0.024729 0
+0.010656 +0.017211 0
-0.021017 +0.009211 0
-0.010759 +0.011070 0
-0.030495 +0.007274 0
-0.018685 +0.013789 0
-0.028756 +0.009719 0
-0.009033 +0.017397 0
+0.018547 +0.024464 0
+0.008888 +0.022536 0
+0.028626 +0.026172 0
+0.051818 +0.024362 0
+0.063404 +0.029596 0
+0.028968 +0.016705 0
-0.051887 -0.005374 0
-0.029029 +0.000075 0
-0.063486 -0.006789 0
-0.037846 +0.007554 0
-0.053862 +0.000798 0
-0.019412 +0.014374 0
+0.037712 +0.029219 0
+0.019268 +0.025465 0
+0.053745 +0.031653 0
+0.051936 +0.030157 0
+0.045544 +0.028972 0
+0.058047 +0.031182 0
-0.000038 +0.010437 0
-0.000042 +0.011634 0
-0.000033 +0.009188 0
-0.052047 +0.000341 0
-0.045659 +0.002821 0
-0.058153 -0.002138 0
-0.000075 +0.020655 0
-0.000075 +0.020604 0
-0.000075 +0.020601 0
+0.125321 +0.042182 0
+0.094811 +0.036843 0
+0.152075 +0.046694 0
+0.000013 -0.003471 0
-0.000006 +0.001664 0
+0.000027 -0.007449 0
-0.125367 -0.029700 0
-0.094881 -0.017549 0
-0.152098 -0.040524 0
-0.000074 +0.020497 0
-0.000073 +0.020074 0
-0.000076 +0.020876 0
+0.000000 +0.000000 0
+0.000000 +0.000000 0
+0.000000 +0.000000 0
-0.221240 -0.073422 0
-0.134144 -0.045162 0
-0.224458 -0.071528 0
-0.275059 -0.096621 0
-0.277829 -0.097469 0
-0.266481 -0.093713 0
-0.272717 -0.094832 0
-0.264737 -0.092591 0
-0.276087 -0.095503 0
-0.300684 -0.103132 0
-0.290619 -0.099879 0
-0.304630 -0.104239 0
-0.298336 -0.103015 0
-0.302882 -0.103941 0
-0.288868 -0.100425 0
-0.210317 -0.076027 0
-0.219346 -0.078901 0
-0.203474 -0.073236 0
-0.196256 -0.068463 0
-0.193840 -0.068347 0
-0.209701 -0.072462 0
-0.269174 -0.091059 0
-0.251528 -0.085612 0
-0.278746 -0.093851 0
-0.255100 -0.087181 0
-0.269105 -0.090897 0
-0.241865 -0.084202 0
-0.254549 -0.089671 0
-0.265368 -0.093205 0
-0.242420 -0.085675 0
-0.226209 -0.080128 0
-0.239795 -0.084672 0
-0.211455 -0.075170 0
-0.254557 -0.087434 0
-0.265375 -0.091252 0
-0.242429 -0.083170 0
-0.292838 -0.099233 0
-0.298379 -0.101470 0
-0.285822 -0.096494 0
-0.104166 -0.041423 0
-0.161035 -0.059213 0
-0.051476 -0.025540 0
-0.067368 -0.025564 0
-0.122590 -0.044809 0
-0.027701 -0.011031 0
-0.104188 -0.035364 0
-0.161051 -0.054902 0
-0.051505 -0.017431 0
-0.216886 -0.068437 0
-0.240297 -0.078560 0
-0.196478 -0.059427 0
-0.138005 -0.042854 0
-0.168622 -0.049228 0
-0.074375 -0.028087 0
-0.083212 -0.037126 0
-0.059720 -0.030582 0
-0.055830 -0.024052 0
+0.000000 +0.000000 0
+0.000000 +0.000000 0
+0.000000 +0.000000 0
-0.300684 -0.103132 0
-0.290619 -0.099879 0
-0.304630 -0.104239 0
-0.298336 -0.103015 0
-0.302882 -0.103941 0
-0.288868 -0.100425 0
-0.275059 -0.096621 0
-0.277829 -0.097469 0
-0.266481 -0.093713 0
-0.272717 -0.094832 0
-0.264737 -0.092591 0
-0.276087 -0.095503 0
-0.269174 -0.091059 0
-0.251528 -0.085612 0
-0.278746 -0.093851 0
-0.255100 -0.087181 0
-0.269105 -0.090897 0
-0.241865 -0.084202 0
-0.210317 -0.076027 0
-0.219346 -0.078901 0
-0.203474 -0.073236 0
-0.196256 -0.068463 0
-0.193840 -0.068347 0
-0.209701 -0.072462 0
-0.254557 -0.087434 0
-0.265375 -0.091252 0
-0.242429 -0.083170 0
-0.292838 -0.099233 0
-0.298379 -0.101470 0
-0.285822 -0.096494 0
-0.254549 -0.089671 0
-0.265368 -0.093205 0
-0.242420 -0.085675 0
-0.226209 -0.080128 0
-0.239795 -0.084672 0
-0.211455 -0.075170 0
-0.104188 -0.035364 0
-0.161051 -0.054902 0
-0.051505 -0.017431 0
-0.216886 -0.068437 0
-0.240297 -0.078560 0
-0.196478 -0.059427 0
-0.104166 -0.041423 0
-0.161035 -0.059213 0
-0.051476 -0.025540 0
-0.067368 -0.025564 0
-0.122590 -0.044809 0
-0.027701 -0.011031 0
+0.054697 +0.032233 0
+0.014557 +0.024393 0
+0.112734 +0.041246 0
+0.138028 +0.036295 0
+0.168628 +0.047475 0
+0.074424 +0.014580 0
-0.018685 +0.013789 0
-0.028756 +0.009719 0
-0.009033 +0.017397 0
+0.018547 +0.024464 0
+0.008888 +0.022536 0
+0.028626 +0.026172 0
+0.020907 +0.021232 0
+0.030379 +0.024729 0
+0.010656 +0.017211 0
-0.021017 +0.009211 0
-0.010759 +0.011070 0
-0.030495 +0.007274 0
-0.037846 +0.007554 0
-0.053862 +0.000798 0
-0.019412 +0.014374 0
+0.037712 +0.029219 0
+0.019268 +0.025465 0
+0.053745 +0.031653 0
+0.051818 +0.024362 0
+0.063404 +0.029596 0
+0.028968 +0.016705 0
-0.051887 -0.005374 0
-0.029029 +0.000075 0
-0.063486 -0.006789 0
-0.052047 +0.000341 0
-0.045659 +0.002821 0
-0.058153 -0.002138 0
-0.000075 +0.020655 0
-0.000075 +0.020604 0
-0.000075 +0.020601 0
+0.051936 +0.030157 0
+0.045544 +0.028972 0
+0.058047 +0.031182 0
-0.000038 +0.010437 0
-0.000042 +0.011634 0
-0.000033 +0.009188 0
-0.125367 -0.029700 0
-0.094881 -0.017549 0
-0.152098 -0.040524 0
-0.000074 +0.020497 0
-0.000073 +0.020074 0
-0.000076 +0.020876 0
+0.125321 +0.042182 0
+0.094811 +0.036843 0
+0.152075 +0.046694 0
+0.000013 -0.003471 0
-0.000006 +0.001664 0
+0.000027 -0.007449 0
-0.138005 -0.042854 0
-0.168622 -0.049228 0
-0.074375 -0.028087 0
+0.138028 +0.036295 0
+0.074424 +0.014580 0
+0.168628 +0.047475 0
-0.018685 +0.013789 0
-0.009033 +0.017397 0
-0.028756 +0.009719 0
-0.021017 +0.009211 0
-0.030495 +0.007274 0
-0.010759 +0.011070 0
+0.020907 +0.021232 0
+0.010656 +0.017211 0
+0.030379 +0.024729 0
+0.018547 +0.024464 0
+0.028626 +0.026172 0
+0.008888 +0.022536 0
-0.037846 +0.007554 0
-0.019412 +0.014374 0
-0.053862 +0.000798 0
-0.051887 -0.005374 0
-0.063486 -0.006789 0
-0.029029 +0.000075 0
+0.051818 +0.024362 0
+0.028968 +0.016705 0
+0.063404 +0.029596 0
+0.037712 +0.029219 0
+0.053745 +0.031653 0
+0.019268 +0.025465 0
-0.000075 +0.020655 0
-0.000075 +0.020604 0
-0.000075 +0.020601 0
-0.052047 +0.000341 0
-0.045659 +0.002821 0
-0.058153 -0.002138 0
-0.000038 +0.010437 0
-0.000042 +0.011634 0
-0.000033 +0.009188 0
+0.051936 +0.030157 0
+0.045544 +0.028972 0
+0.058047 +0.031182 0
-0.000074 +0.020497 0
-0.000073 +0.020074 0
-0.000076 +0.020876 0
-0.125367 -0.029700 0
-0.094881 -0.017549 0
-0.152098 -0.040524 0
+0.000013 -0.003471 0
-0.000006 +0.001664 0
+0.000027 -0.007449 0
+0.125321 +0.042182 0
+0.094811 +0.036843 0
+0.152075 +0.046694 0
+0.000000 +0.000000 0
+0.000000 +0.000000 0
+0.000000 +0.000000 0
-0.083212 -0.037126 0
-0.055830 -0.024052 0
-0.059720 -0.030582 0
-0.300684 -0.103132 0
-0.304630 -0.104239 0
-0.290619 -0.099879 0
-0.272717 -0.094832 0
-0.276087 -0.095503 0
-0.264737 -0.092591 0
-0.275059 -0.096621 0
-0.266481 -0.093713 0
-0.277829 -0.097469 0
-0.298336 -0.103015 0
-0.288868 -0.100425 0
-0.302882 -0.103941 0
-0.269174 -0.091059 0
-0.278746 -0.093851 0
-0.251528 -0.085612 0
-0.196256 -0.068463 0
-0.209701 -0.072462 0
-0.193840 -0.068347 0
-0.210317 -0.076027 0
-0.203474 -0.073236 0
-0.219346 -0.078901 0
-0.255100 -0.087181 0
-0.241865 -0.084202 0
-0.269105 -0.090897 0
-0.292838 -0.099233 0
-0.298379 -0.101470 0
-0.285822 -0.096494 0
-0.254557 -0.087434 0
-0.265375 -0.091252 0
-0.242429 -0.083170 0
-0.226209 -0.080128 0
-0.239795 -0.084672 0
-0.211455 -0.075170 0
-0.254549 -0.089671 0
-0.265368 -0.093205 0
-0.242420 -0.085675 0
-0.216886 -0.068437 0
-0.240297 -0.078560 0
-0.196478 -0.059427 0
-0.104188 -0.035364 0
-0.161051 -0.054902 0
-0.051505 -0.017431 0
-0.067368 -0.025564 0
-0.122590 -0.044809 0
-0.027701 -0.011031 0
-0.104166 -0.041423 0
-0.161035 -0.059213 0
-0.051476 -0.025540 0
+0.083308 +0.010622 0
+0.059818 +0.003694 0
+0.055888 +0.007982 0
+0.000000 +0.000000 0
+0.000000 +0.000000 0
+0.000000 +0.000000 0
+0.000000 +0.000000 0
+0.000000 +0.000000 0
+0.000000 +0.000000 0
-0.006940 -0.020300 0
-0.009393 -0.020245 0
-0.003757 -0.019806 0
+0.007072 -0.016282 0
+0.003893 -0.017613 0
+0.009520 -0.014822 0
+0.004718 -0.014721 0
+0.007770 -0.014203 0
+0.002134 -0.014801 0
-0.004602 -0.017394 0
-0.002022 -0.015993 0
-0.007651 -0.018625 0
-0.021012 -0.022585 0
-0.021409 -0.021412 0
-0.012770 -0.021085 0
+0.021131 -0.010501 0
+0.012897 -0.013725 0
+0.021520 -0.009102 0
+0.007039 -0.009331 0
+0.011868 -0.008981 0
+0.003215 -0.009993 0
-0.006957 -0.013344 0
-0.003136 -0.011814 0
-0.011779 -0.015762 0
-0.014582 -0.019446 0
-0.012926 -0.019619 0
-0.016214 -0.019186 0
+0.000067 -0.018418 0
+0.000068 -0.018651 0
+0.000066 -0.018095 0
+0.014692 -0.011052 0
+0.013041 -0.012174 0
+0.016319 -0.009858 0
+0.000046 -0.012674 0
+0.000049 -0.013587 0
+0.000042 -0.011693 0
-0.024151 -0.013173 0
-0.022826 -0.016202 0
-0.016679 -0.007871 0
+0.000052 -0.014438 0
+0.000057 -0.015763 0
+0.000046 -0.012767 0
+0.024197 +0.000691 0
+0.022895 -0.003092 0
+0.016702 +0.001701 0
+0.000009 -0.002588 0
+0.000022 -0.005975 0
+0.000002 -0.000660 0
+0.221312 +0.053476 0
+0.224510 +0.057209 0
+0.134193 +0.031781 0
+0.000000 +0.000000 0
+0.000000 +0.000000 0
+0.000000 +0.000000 0
+0.298463 +0.068111 0
+0.288995 +0.065271 0
+0.303006 +0.069791 0
+0.300806 +0.069339 0
+0.304752 +0.070495 0
+0.290738 +0.066819 0
+0.272838 +0.061600 0
+0.276205 +0.062862 0
+0.264857 +0.059265 0
+0.275188 +0.061156 0
+0.266606 +0.059144 0
+0.277958 +0.061897 0
+0.255202 +0.059143 0
+0.241973 +0.054534 0
+0.269205 +0.063458 0
+0.269274 +0.063336 0
+0.278847 +0.066033 0
+0.251626 +0.058662 0
+0.196344 +0.044112 0
+0.209790 +0.047822 0
+0.193933 +0.042843 0
+0.210431 +0.044618 0