# vtk DataFile Version 2.0
MyTitle
ASCII
DATASET UNSTRUCTURED_GRID
POINTS 1761 double
0.000000 0.000000 0.000000
1.000000 0.000000 0.000000
1.000000 1.000000 0.000000
0.000000 1.000000 0.000000
0.420000 0.420000 0.000000
0.580000 0.420000 0.000000
0.580000 0.580000 0.000000
0.420000 0.580000 0.000000
0.358579 0.358579 0.000000
0.641421 0.358579 0.000000
0.641421 0.641421 0.000000
0.358579 0.641421 0.000000
2.000000 0.000000 0.000000
2.000000 1.000000 0.000000
1.420000 0.420000 0.000000
1.580000 0.420000 0.000000
1.580000 0.580000 0.000000
1.420000 0.580000 0.000000
1.358579 0.358579 0.000000
1.641421 0.358579 0.000000
1.641421 0.641421 0.000000
1.358579 0.641421 0.000000
3.000000 0.000000 0.000000
3.000000 1.000000 0.000000
2.420000 0.420000 0.000000
2.580000 0.420000 0.000000
2.580000 0.580000 0.000000
2.420000 0.580000 0.000000
2.358579 0.358579 0.000000
2.641421 0.358579 0.000000
2.641421 0.641421 0.000000
2.358579 0.641421 0.000000
4.000000 0.000000 0.000000
4.000000 1.000000 0.000000
3.420000 0.420000 0.000000
3.580000 0.420000 0.000000
3.580000 0.580000 0.000000
3.420000 0.580000 0.000000
3.358579 0.358579 0.000000
3.641421 0.358579 0.000000
3.641421 0.641421 0.000000
3.358579 0.641421 0.000000
1.000000 2.000000 0.000000
0.000000 2.000000 0.000000
0.420000 1.420000 0.000000
0.580000 1.420000 0.000000
0.580000 1.580000 0.000000
0.420000 1.580000 0.000000
0.358579 1.358579 0.000000
0.641421 1.358579 0.000000
0.641421 1.641421 0.000000
0.358579 1.641421 0.000000
2.000000 2.000000 0.000000
1.420000 1.420000 0.000000
1.580000 1.420000 0.000000
1.580000 1.580000 0.000000
1.420000 1.580000 0.000000
1.358579 1.358579 0.000000
1.641421 1.358579 0.000000
1.641421 1.641421 0.000000
1.358579 1.641421 0.000000
3.000000 2.000000 0.000000
2.420000 1.420000 0.000000
2.580000 1.420000 0.000000
2.580000 1.580000 0.000000
2.420000 1.580000 0.000000
2.358579 1.358579 0.000000
2.641421 1.358579 0.000000
2.641421 1.641421 0.000000
2.358579 1.641421 0.000000
4.000000 2.000000 0.000000
3.420000 1.420000 0.000000
3.580000 1.420000 0.000000
3.580000 1.580000 0.000000
3.420000 1.580000 0.000000
3.358579 1.358579 0.000000
3.641421 1.358579 0.000000
3.641421 1.641421 0.000000
3.358579 1.641421 0.000000
1.000000 3.000000 0.000000
0.000000 3.000000 0.000000
0.420000 2.420000 0.000000
0.580000 2.420000 0.000000
0.580000 2.580000 0.000000
0.420000 2.580000 0.000000
0.358579 2.358579 0.000000
0.641421 2.358579 0.000000
0.641421 2.641421 0.000000
0.358579 2.641421 0.000000
2.000000 3.000000 0.000000
1.420000 2.420000 0.000000
1.580000 2.420000 0.000000
1.580000 2.580000 0.000000
1.420000 2.580000 0.000000
1.358579 2.358579 0.000000
1.641421 2.358579 0.000000
1.641421 2.641421 0.000000
1.358579 2.641421 0.000000
3.000000 3.000000 0.000000
2.420000 2.420000 0.000000
2.580000 2.420000 0.000000
2.580000 2.580000 0.000000
2.420000 2.580000 0.000000
2.358579 2.358579 0.000000
2.641421 2.358579 0.000000
2.641421 2.641421 0.000000
2.358579 2.641421 0.000000
4.000000 3.000000 0.000000
3.420000 2.420000 0.000000
3.580000 2.420000 0.000000
3.580000 2.580000 0.000000
3.420000 2.580000 0.000000
3.358579 2.358579 0.000000
3.641421 2.358579 0.000000
3.641421 2.641421 0.000000
3.358579 2.641421 0.000000
1.000000 4.000000 0.000000
0.000000 4.000000 0.000000
0.420000 3.420000 0.000000
0.580000 3.420000 0.000000
0.580000 3.580000 0.000000
0.420000 3.580000 0.000000
0.358579 3.358579 0.000000
0.641421 3.358579 0.000000
0.641421 3.641421 0.000000
0.358579 3.641421 0.000000
2.000000 4.000000 0.000000
1.420000 3.420000 0.000000
1.580000 3.420000 0.000000
1.580000 3.580000 0.000000
1.420000 3.580000 0.000000
1.358579 3.358579 0.000000
1.641421 3.358579 0.000000
1.641421 3.641421 0.000000
1.358579 3.641421 0.000000
3.000000 4.000000 0.000000
2.420000 3.420000 0.000000
2.580000 3.420000 0.000000
2.580000 3.580000 0.000000
2.420000 3.580000 0.000000
2.358579 3.358579 0.000000
2.641421 3.358579 0.000000
2.641421 3.641421 0.000000
2.358579 3.641421 0.000000
4.000000 4.000000 0.000000
3.420000 3.420000 0.000000
3.580000 3.420000 0.000000
3.580000 3.580000 0.000000
3.420000 3.580000 0.000000
3.358579 3.358579 0.000000
3.641421 3.358579 0.000000
3.641421 3.641421 0.000000
3.358579 3.641421 0.000000
0.500000 0.000000 0.000000
0.250000 0.000000 0.000000
0.750000 0.000000 0.000000
1.000000 0.500000 0.000000
1.000000 0.250000 0.000000
1.000000 0.750000 0.000000
0.500000 1.000000 0.000000
0.750000 1.000000 0.000000
0.250000 1.000000 0.000000
0.000000 0.500000 0.000000
0.000000 0.750000 0.000000
0.000000 0.250000 0.000000
0.500000 0.420000 0.000000
0.460000 0.420000 0.000000
0.540000 0.420000 0.000000
0.580000 0.500000 0.000000
0.580000 0.460000 0.000000
0.580000 0.540000 0.000000
0.500000 0.580000 0.000000
0.540000 0.580000 0.000000
0.460000 0.580000 0.000000
0.420000 0.500000 0.000000
0.420000 0.540000 0.000000
0.420000 0.460000 0.000000
0.500000 0.300001 0.000000
0.423464 0.315225 0.000000
0.576536 0.315225 0.000000
0.699999 0.500000 0.000000
0.684775 0.423464 0.000000
0.684775 0.576536 0.000000
0.500000 0.699999 0.000000
0.576536 0.684775 0.000000
0.423464 0.684775 0.000000
0.300001 0.500000 0.000000
0.315225 0.576536 0.000000
0.315225 0.423464 0.000000
0.389290 0.389290 0.000000
0.404645 0.404645 0.000000
0.373934 0.373934 0.000000
0.610710 0.389290 0.000000
0.595355 0.404645 0.000000
0.626066 0.373934 0.000000
0.610710 0.610710 0.000000
0.595355 0.595355 0.000000
0.626066 0.626066 0.000000
0.389290 0.610710 0.000000
0.404645 0.595355 0.000000
0.373934 0.626066 0.000000
0.179290 0.179290 0.000000
0.268934 0.268934 0.000000
0.089645 0.089645 0.000000
0.820710 0.179290 0.000000
0.731066 0.268934 0.000000
0.910355 0.089645 0.000000
0.820710 0.820710 0.000000
0.731066 0.731066 0.000000
0.910355 0.910355 0.000000
0.179290 0.820710 0.000000
0.268934 0.731066 0.000000
0.089645 0.910355 0.000000
1.500000 0.000000 0.000000
1.250000 0.000000 0.000000
1.750000 0.000000 0.000000
2.000000 0.500000 0.000000
2.000000 0.250000 0.000000
2.000000 0.750000 0.000000
1.500000 1.000000 0.000000
1.750000 1.000000 0.000000
1.250000 1.000000 0.000000
1.500000 0.420000 0.000000
1.460000 0.420000 0.000000
1.540000 0.420000 0.000000
1.580000 0.500000 0.000000
1.580000 0.460000 0.000000
1.580000 0.540000 0.000000
1.500000 0.580000 0.000000
1.540000 0.580000 0.000000
1.460000 0.580000 0.000000
1.420000 0.500000 0.000000
1.420000 0.540000 0.000000
1.420000 0.460000 0.000000
1.500000 0.300001 0.000000
1.423464 0.315225 0.000000
1.576536 0.315225 0.000000
1.699999 0.500000 0.000000
1.684775 0.423464 0.000000
1.684775 0.576536 0.000000
1.500000 0.699999 0.000000
1.576536 0.684775 0.000000
1.423464 0.684775 0.000000
1.300001 0.500000 0.000000
1.315225 0.576536 0.000000
1.315225 0.423464 0.000000
1.389290 0.389290 0.000000
1.404645 0.404645 0.000000
1.373934 0.373934 0.000000
1.610710 0.389290 0.000000
1.595355 0.404645 0.000000
1.626066 0.373934 0.000000
1.610710 0.610710 0.000000
1.595355 0.595355 0.000000
1.626066 0.626066 0.000000
1.389290 0.610710 0.000000
1.404645 0.595355 0.000000
1.373934 0.626066 0.000000
1.179290 0.179290 0.000000
1.268934 0.268934 0.000000
1.089645 0.089645 0.000000
1.820710 0.179290 0.000000
1.731066 0.268934 0.000000
1.910355 0.089645 0.000000
1.820710 0.820710 0.000000
1.731066 0.731066 0.000000
1.910355 0.910355 0.000000
1.179290 0.820710 0.000000
1.268934 0.731066 0.000000
1.089645 0.910355 0.000000
2.500000 0.000000 0.000000
2.250000 0.000000 0.000000
2.750000 0.000000 0.000000
3.000000 0.500000 0.000000
3.000000 0.250000 0.000000
3.000000 0.750000 0.000000
2.500000 1.000000 0.000000
2.750000 1.000000 0.000000
2.250000 1.000000 0.000000
2.500000 0.420000 0.000000
2.460000 0.420000 0.000000
2.540000 0.420000 0.000000
2.580000 0.500000 0.000000
2.580000 0.460000 0.000000
2.580000 0.540000 0.000000
2.500000 0.580000 0.000000
2.540000 0.580000 0.000000
2.460000 0.580000 0.000000
2.420000 0.500000 0.000000
2.420000 0.540000 0.000000
2.420000 0.460000 0.000000
2.500000 0.300001 0.000000
2.423464 0.315225 0.000000
2.576536 0.315225 0.000000
2.699999 0.500000 0.000000
2.684775 0.423464 0.000000
2.684775 0.576536 0.000000
2.500000 0.699999 0.000000
2.576536 0.684775 0.000000
2.423464 0.684775 0.000000
2.300001 0.500000 0.000000
2.315225 0.576536 0.000000
2.315225 0.423464 0.000000
2.389289 0.389289 0.000000
2.404645 0.404645 0.000000
2.373934 0.373934 0.000000
2.610711 0.389289 0.000000
2.595355 0.404645 0.000000
2.626066 0.373934 0.000000
2.610711 0.610711 0.000000
2.595355 0.595355 0.000000
2.626066 0.626066 0.000000
2.389289 0.610711 0.000000
2.404645 0.595355 0.000000
2.373934 0.626066 0.000000
2.179290 0.179290 0.000000
2.268934 0.268934 0.000000
2.089645 0.089645 0.000000
2.820710 0.179290 0.000000
2.731066 0.268934 0.000000
2.910355 0.089645 0.000000
2.820710 0.820710 0.000000
2.731066 0.731066 0.000000
2.910355 0.910355 0.000000
2.179290 0.820710 0.000000
2.268934 0.731066 0.000000
2.089645 0.910355 0.000000
3.500000 0.000000 0.000000
3.250000 0.000000 0.000000
3.750000 0.000000 0.000000
4.000000 0.500000 0.000000
4.000000 0.250000 0.000000
4.000000 0.750000 0.000000
3.500000 1.000000 0.000000
3.750000 1.000000 0.000000
3.250000 1.000000 0.000000
3.500000 0.420000 0.000000
3.460000 0.420000 0.000000
3.540000 0.420000 0.000000
3.580000 0.500000 0.000000
3.580000 0.460000 0.000000
3.580000 0.540000 0.000000
3.500000 0.580000 0.000000
3.540000 0.580000 0.000000
3.460000 0.580000 0.000000
3.420000 0.500000 0.000000
3.420000 0.540000 0.000000
3.420000 0.460000 0.000000
3.500000 0.300001 0.000000
3.423464 0.315225 0.000000
3.576536 0.315225 0.000000
3.699999 0.500000 0.000000
3.684775 0.423464 0.000000
3.684775 0.576536 0.000000
3.500000 0.699999 0.000000
3.576536 0.684775 0.000000
3.423464 0.684775 0.000000
3.300001 0.500000 0.000000
3.315225 0.576536 0.000000
3.315225 0.423464 0.000000
3.389289 0.389289 0.000000
3.404645 0.404645 0.000000
3.373934 0.373934 0.000000
3.610711 0.389289 0.000000
3.595355 0.404645 0.000000
3.626066 0.373934 0.000000
3.610711 0.610711 0.000000
[...]
POINT_DATA 1761
VECTORS sol double
+0.000000 +0.000000 0
+0.000000 +0.000000 0
-0.085307 +0.002135 0
+0.000000 +0.000000 0
-0.035159 +0.000880 0
-0.046783 +0.001619 0
-0.054493 +0.001364 0
-0.040483 +0.000565 0
-0.025770 +0.000645 0
-0.043538 +0.001814 0
-0.058237 +0.001458 0
-0.033361 +0.000111 0
+0.000000 +0.000000 0
-0.243333 +0.032123 0
-0.147074 +0.014859 0
-0.162582 +0.017702 0
-0.195923 +0.021085 0
-0.175993 +0.017404 0
-0.117046 +0.011518 0
-0.140229 +0.015755 0
-0.199478 +0.022041 0
-0.163127 +0.015305 0
+0.000000 +0.000000 0
-0.258819 +0.043294 0
-0.234096 +0.034665 0
-0.233711 +0.035410 0
-0.286832 +0.043696 0
-0.286783 +0.042638 0
-0.192645 +0.028189 0
-0.191839 +0.029259 0
-0.281580 +0.043403 0
-0.281094 +0.041401 0
+0.000000 +0.000000 0
+0.000000 +0.000000 0
-0.133420 +0.022170 0
-0.106673 +0.017844 0
-0.131344 +0.022118 0
-0.165331 +0.027656 0
-0.118331 +0.019555 0
-0.078186 +0.013079 0
-0.114977 +0.019471 0
-0.176689 +0.029556 0
+0.122692 -0.029104 0
+0.000000 +0.000000 0
+0.010085 -0.011430 0
+0.006769 -0.013168 0
+0.031592 -0.016972 0
+0.029089 -0.014360 0
+0.003703 -0.008681 0
-0.005349 -0.011088 0
+0.040221 -0.018055 0
+0.031941 -0.013045 0
+0.000000 +0.000000 0
-0.114731 +0.002872 0
-0.145355 +0.009090 0
-0.098334 +0.002461 0
-0.068699 -0.003733 0
-0.110240 +0.002759 0
-0.162414 +0.013249 0
-0.082517 +0.002065 0
-0.033287 -0.008351 0
-0.122692 +0.029104 0
-0.337351 +0.054634 0
-0.348094 +0.058228 0
-0.312086 +0.054001 0
-0.298344 +0.049906 0
-0.318158 +0.050193 0
-0.334467 +0.055948 0
-0.275598 +0.049128 0
-0.250356 +0.041878 0
+0.000000 +0.000000 0
-0.226593 +0.042188 0
-0.181912 +0.034114 0
-0.170922 +0.033084 0
-0.211795 +0.040762 0
-0.229576 +0.042101 0
-0.152041 +0.028263 0
-0.135898 +0.026768 0
-0.202090 +0.039424 0
+0.258819 -0.043294 0
+0.000000 +0.000000 0
+0.170922 -0.033084 0
+0.211795 -0.040762 0
+0.226593 -0.042188 0
+0.181912 -0.034114 0
+0.135898 -0.026768 0
+0.202090 -0.039424 0
+0.229576 -0.042101 0
+0.152041 -0.028263 0
+0.243333 -0.032123 0
+0.312086 -0.054001 0
+0.298344 -0.049906 0
+0.337351 -0.054634 0
+0.348094 -0.058228 0
+0.275598 -0.049128 0
+0.250356 -0.041878 0
+0.318158 -0.050193 0
+0.334467 -0.055948 0
+0.085307 -0.002135 0
+0.098334 -0.002461 0
+0.068699 +0.003733 0
+0.114731 -0.002872 0
+0.145355 -0.009090 0
+0.082517 -0.002065 0
+0.033287 +0.008351 0
+0.110240 -0.002759 0
+0.162414 -0.013249 0
+0.000000 +0.000000 0
-0.031592 +0.016972 0
-0.029089 +0.014360 0
-0.010085 +0.011430 0
-0.006769 +0.013168 0
-0.040221 +0.018055 0
-0.031941 +0.013045 0
-0.003703 +0.008681 0
+0.005349 +0.011088 0
+0.000000 +0.000000 0
+0.000000 +0.000000 0
+0.131344 -0.022118 0
+0.165331 -0.027656 0
+0.133420 -0.022170 0
+0.106673 -0.017844 0
+0.114977 -0.019471 0
+0.176689 -0.029556 0
+0.118331 -0.019555 0
+0.078186 -0.013079 0
+0.000000 +0.000000 0
+0.286832 -0.043696 0
+0.286783 -0.042638 0
+0.234096 -0.034665 0
+0.233711 -0.035410 0
+0.281580 -0.043403 0
+0.281094 -0.041401 0
+0.192645 -0.028189 0
+0.191839 -0.029259 0
+0.000000 +0.000000 0
+0.195923 -0.021085 0
+0.175993 -0.017404 0
+0.147074 -0.014859 0
+0.162582 -0.017702 0
+0.199478 -0.022041 0
+0.163127 -0.015305 0
+0.117046 -0.011518 0
+0.140229 -0.015755 0
+0.000000 +0.000000 0
+0.054493 -0.001364 0
+0.040483 -0.000565 0
+0.035159 -0.000880 0
+0.046783 -0.001619 0
+0.058237 -0.001458 0
+0.033361 -0.000111 0
+0.025770 -0.000645 0
+0.043538 -0.001814 0
+0.000000 +0.000000 0
+0.000000 +0.000000 0
+0.000000 +0.000000 0
-0.083681 +0.005842 0
-0.048223 +0.003642 0
-0.095053 +0.005305 0
-0.030996 -0.002971 0
-0.053919 -0.001576 0
-0.013990 -0.002085 0
+0.000000 +0.000000 0
+0.000000 +0.000000 0
+0.000000 +0.000000 0
-0.041561 +0.001223 0
-0.038488 +0.001044 0
-0.044335 +0.001415 0
-0.052080 +0.001587 0
-0.049767 +0.001626 0
-0.053659 +0.001499 0
-0.048093 +0.000920 0
-0.051462 +0.001132 0
-0.044418 +0.000731 0
-0.038991 +0.000793 0
-0.040043 +0.000697 0
-0.037349 +0.000854 0
-0.030486 +0.001042 0
-0.027442 +0.000812 0
-0.035952 +0.001378 0
-0.058302 +0.002360 0
-0.051737 +0.002198 0
-0.060562 +0.002069 0
-0.045631 +0.000241 0
-0.052791 +0.000769 0
-0.039041 +0.000074 0
-0.026560 +0.000386 0
-0.029235 +0.000254 0
-0.025678 +0.000517 0
-0.030552 +0.000765 0
-0.032866 +0.000823 0
-0.028140 +0.000704 0
-0.045534 +0.001734 0
-0.046260 +0.001682 0
-0.044688 +0.001784 0
-0.056698 +0.001419 0
-0.055663 +0.001393 0
-0.057571 +0.001441 0
-0.037181 +0.000337 0
-0.038897 +0.000450 0
-0.035336 +0.000219 0
-0.006309 +0.000158 0
-0.014521 +0.000363 0
-0.001592 +0.000040 0
-0.027983 +0.001731 0
-0.036441 +0.001882 0
-0.015979 +0.001119 0
-0.071244 +0.001783 0
-0.063949 +0.001601 0
-0.078541 +0.001966 0
-0.013494 -0.000693 0
-0.022803 -0.000399 0
-0.005868 -0.000572 0
+0.000000 +0.000000 0
+0.000000 +0.000000 0
+0.000000 +0.000000 0
-0.188323 +0.024861 0
-0.104823 +0.013838 0
-0.231806 +0.030602 0
-0.169785 +0.015351 0
-0.207123 +0.023412 0
-0.126558 +0.008013 0
-0.157655 +0.016549 0
-0.153032 +0.015764 0
-0.160848 +0.017197 0
-0.183735 +0.019901 0
-0.174194 +0.018919 0
-0.191001 +0.020626 0
-0.189088 +0.019533 0
-0.193312 +0.020387 0
-0.183278 +0.018533 0
-0.165759 +0.016594 0
-0.171983 +0.017120 0
-0.157393 +0.015834 0
-0.113693 +0.012027 0
-0.112544 +0.011489 0
-0.123572 +0.013503 0
-0.180749 +0.020741 0
-0.161118 +0.018397 0
-0.194556 +0.022079 0
-0.187908 +0.019023 0
-0.197056 +0.020934 0
-0.176294 +0.017073 0
-0.137817 +0.012858 0
-0.150376 +0.013925 0
-0.126671 +0.012090 0
-0.132683 +0.013239 0
-0.140010 +0.014058 0
-0.124956 +0.012380 0
-0.152449 +0.016857 0
-0.157782 +0.017313 0
-0.146670 +0.016352 0
-0.198910 +0.021687 0
-0.197675 +0.021411 0
-0.199555 +0.021898 0
-0.170741 +0.016474 0
-0.173656 +0.016970 0
-0.167308 +0.015928 0
-0.045978 +0.004106 0
-0.077861 +0.007350 0
-0.020521 +0.001719 0
-0.072276 +0.008867 0
-0.105427 +0.012364 0
-0.037503 +0.004781 0
-0.216714 +0.026135 0
-0.205215 +0.023682 0
-0.229902 +0.029003 0
-0.123589 +0.008694 0
-0.142033 +0.011909 0
-0.104946 +0.005452 0
+0.000000 +0.000000 0
+0.000000 +0.000000 0
+0.000000 +0.000000 0
-0.182647 +0.029317 0
-0.100019 +0.015928 0
-0.232769 +0.037972 0
-0.304071 +0.047205 0
-0.291850 +0.047222 0
-0.281869 +0.041142 0
-0.238715 +0.035777 0
-0.237592 +0.035402 0
-0.237405 +0.035779 0
-0.266297 +0.040443 0
-0.251386 +0.038130 0
-0.278153 +0.042304 0
-0.292299 +0.044016 0
-0.290921 +0.044067 0
-0.290891 +0.043534 0
-0.266518 +0.039538 0
-0.278252 +0.041322 0
-0.251702 +0.037305 0
-0.170392 +0.025476 0
-0.177004 +0.026177 0
-0.176587 +0.026680 0
-0.239270 +0.036923 0
-0.214737 +0.032980 0
-0.263051 +0.040653 0
-0.297855 +0.045104 0
-0.294179 +0.045036 0
-0.293634 +0.043843 0
-0.240081 +0.034815 0
-0.263102 +0.038339 0
-0.215733 +0.031352 0
-0.214592 +0.031598 0
-0.224631 +0.033171 0
-0.203906 +0.029929 0
-0.214003 +0.032529 0
-0.224146 +0.034016 0
-0.203206 +0.030942 0
-0.286065 +0.043830 0
-0.286874 +0.043826 0
-0.284407 +0.043705 0
-0.285830 +0.042305 0
-0.286747 +0.042540 0
-0.284074 +0.041947 0
-0.085108 +0.011910 0
-0.134962 +0.019370 0
-0.040742 +0.005549 0
-0.083304 +0.012961 0
-0.133540 +0.020558 0
-0.039349 +0.006185 0
-0.268498 +0.043067 0
-0.272104 +0.042763 0
-0.264697 +0.043346 0
-0.263753 +0.037293 0
-0.270036 +0.039058 0
-0.255509 +0.035078 0
+0.000000 +0.000000 0
+0.000000 +0.000000 0
+0.000000 +0.000000 0
+0.000000 +0.000000 0
+0.000000 +0.000000 0
+0.000000 +0.000000 0
-0.165282 +0.028883 0
-0.088736 +0.015646 0
-0.219212 +0.037633 0
-0.122621 +0.020451 0
-0.128708 +0.021429 0
-0.115233 +0.019249 0
-0.121774 +0.020430 0
-0.114857 +0.019240 0
-0.127293 +0.021394 0
-0.151304 +0.025403 0
-0.141997 +0.023878 0
-0.159105 +0.026666 0
-0.152619 +0.025436 0
-0.159829 +0.026684 0
-0.143760 +0.023922 0
-0.087186 +0.014492 0
-0.099995 +0.016569 0
-0.080875 +0.013487 0
-0.085892 +0.014460 0
-0.080293 +0.013472 0
-0.097781 +0.016514 0
-0.155578 +0.026321 0
-0.135619 +0.022983 0
-0.170676 +0.028732 0
-0.159754 +0.026426 0
-0.173237 +0.028796 0
-0.139803 +0.023088 0
-0.126854 +0.021024 0
-0.130397 +0.021640 0
-0.122938 +0.020345 0
-0.092695 +0.015506 0
-0.099716 +0.016680 0
-0.085376 +0.014281 0
-0.124101 +0.020955 0
-0.127970 +0.021579 0
-0.119856 +0.020268 0
-0.172021 +0.028775 0
-0.168882 +0.028250 0
-0.174670 +0.029218 0
-0.065309 +0.010585 0
-0.092119 +0.015090 0
-0.034807 +0.005585 0
-0.019140 +0.003202 0
-0.044057 +0.007370 0
-0.004831 +0.000808 0
-0.060534 +0.010465 0
-0.087624 +0.014977 0
-0.031474 +0.005502 0
-0.216152 +0.036157 0
-0.194020 +0.032455 0
-0.238292 +0.039860 0
-0.013702 -0.010758 0
-0.058428 -0.003383 0
+0.049157 -0.019458 0
+0.094955 -0.022524 0
+0.116879 -0.027725 0
+0.052853 -0.012537 0
+0.000000 +0.000000 0
+0.000000 +0.000000 0
+0.000000 +0.000000 0
+0.009225 -0.012676 0
+0.009848 -0.012141 0
+0.008198 -0.013020 0
+0.019011 -0.015277 0
+0.012804 -0.014266 0
+0.025307 -0.016182 0
+0.031421 -0.016089 0
+0.031780 -0.016640 0
+0.030511 -0.015323 0
+0.019545 -0.013092 0
+0.024346 -0.013781 0
+0.014764 -0.012304 0
-0.005539 -0.009269 0
-0.001259 -0.008888 0
-0.007506 -0.009974 0
+0.013436 -0.014657 0
+0.001710 -0.012703 0
+0.027936 -0.016701 0
+0.047258 -0.017399 0
+0.047405 -0.018396 0
+0.040848 -0.015387 0
+0.015394 -0.009566 0
+0.022791 -0.010980 0
+0.009384 -0.008907 0
+0.006761 -0.010087 0
+0.008373 -0.010763 0
+0.005136 -0.009381 0
+0.000804 -0.012221 0
+0.003830 -0.012719 0
-0.002240 -0.011684 0
+0.036012 -0.017610 0
+0.033797 -0.017309 0
+0.038113 -0.017858 0
+0.030909 -0.013815 0
+0.030118 -0.014118 0
+0.031624 -0.013472 0
-0.004421 -0.002845 0
-0.001918 -0.005353 0
-0.003578 -0.001115 0
-0.044850 -0.004478 0
-0.024578 -0.007739 0
-0.065227 -0.001192 0
+0.074483 -0.022575 0
+0.055534 -0.019935 0
+0.096982 -0.025677 0
+0.026953 -0.007732 0
+0.031315 -0.010509 0
+0.016515 -0.004255 0
-0.188323 +0.024861 0
-0.231806 +0.030602 0
-0.104823 +0.013838 0
+0.094955 -0.022524 0
+0.052853 -0.012537 0
+0.116879 -0.027725 0
-0.131770 +0.005937 0
-0.123617 +0.004381 0
-0.139045 +0.007515 0
-0.125199 +0.006016 0
-0.136195 +0.007625 0
-0.112499 +0.004284 0
-0.084673 -0.000763 0
-0.091849 +0.000830 0
-0.076917 -0.002291 0
-0.094667 -0.000269 0
-0.082319 -0.001974 0
-0.105520 +0.001354 0
-0.147815 +0.009513 0
-0.131009 +0.006331 0
-0.159274 +0.011972 0
-0.138795 +0.010789 0
-0.155937 +0.012918 0
-0.112649 +0.006900 0
-0.035949 -0.006415 0
-0.055282 -0.002696 0
-0.029187 -0.008284 0
-0.066080 -0.004159 0
-0.046998 -0.006809 0
-0.088104 -0.000846 0
-0.113239 +0.002834 0
-0.114163 +0.002857 0
-0.111977 +0.002803 0
-0.154968 +0.011264 0
-0.150405 +0.010198 0
-0.159083 +0.012298 0
-0.090987 +0.002277 0
-0.094798 +0.002373 0
-0.086905 +0.002175 0
-0.051137 -0.006105 0
-0.059952 -0.004933 0
-0.042155 -0.007261 0
-0.097196 +0.002433 0
-0.102662 +0.002570 0
-0.091632 +0.002293 0
-0.207641 +0.023983 0
-0.184330 +0.018728 0
-0.227612 +0.028460 0
-0.039015 +0.000976 0
-0.059591 +0.001492 0
-0.019396 +0.000485 0
+0.056487 -0.020199 0
+0.014113 -0.014467 0
+0.092441 -0.025077 0
-0.252626 +0.045917 0
-0.269395 +0.046660 0
-0.197399 +0.039028 0
-0.094955 +0.022524 0
-0.116879 +0.027725 0
-0.052853 +0.012537 0
-0.349617 +0.057613 0
-0.345157 +0.056407 0
-0.350581 +0.058219 0
-0.337388 +0.057307 0
-0.344616 +0.058070 0
-0.326460 +0.055939 0
-0.311697 +0.053089 0
-0.313520 +0.053834 0
-0.306591 +0.051769 0
-0.325054 +0.053424 0
-0.313397 +0.051940 0
-0.333058 +0.054323 0
-0.337947 +0.054614 0
-0.331416 +0.052806 0
-0.339464 +0.055778 0
-0.311008 +0.053940 0
-0.325323 +0.055424 0
-0.294410 +0.051880 0
-0.248137 +0.043918 0
-0.259944 +0.046454 0
-0.245295 +0.042377 0
-0.282035 +0.044767 0
-0.264203 +0.042850 0
-0.301721 +0.047499 0
-0.329771 +0.052729 0
-0.334017 +0.053752 0
-0.324547 +0.051548 0
-0.343567 +0.057470 0
-0.346368 +0.057939 0
-0.339738 +0.056830 0
-0.295549 +0.051872 0
-0.304204 +0.053006 0
-0.286007 +0.050583 0
-0.276053 +0.046177 0
-0.287615 +0.048111 0
-0.263670 +0.044106 0
-0.272826 +0.039445 0
-0.290921 +0.044012 0
-0.257799 +0.035621 0
-0.294891 +0.049328 0
-0.311475 +0.052102 0
-0.278011 +0.046504 0
-0.185770 +0.037267 0
-0.225514 +0.042375 0
-0.152310 +0.032981 0
-0.118370 +0.019800 0
-0.180798 +0.030243 0
-0.058849 +0.009844 0
+0.000000 +0.000000 0
+0.000000 +0.000000 0
+0.000000 +0.000000 0
-0.094955 +0.022524 0
-0.052853 +0.012537 0
-0.116879 +0.027725 0
-0.208622 +0.038999 0
-0.218766 +0.040818 0
-0.196264 +0.036751 0
-0.180310 +0.034315 0
-0.182099 +0.034394 0
-0.176553 +0.033874 0
-0.195603 +0.037763 0
-0.184231 +0.035616 0
-0.204823 +0.039484 0
-0.223710 +0.042300 0
-0.218834 +0.041731 0
-0.226292 +0.042450 0
-0.195671 +0.035832 0
-0.215961 +0.039474 0
-0.173401 +0.031946 0
-0.127846 +0.024412 0
-0.136400 +0.025675 0
-0.128763 +0.024970 0
-0.164930 +0.032934 0
-0.149165 +0.029686 0
-0.183352 +0.036342 0
-0.231492 +0.043443 0
-0.219476 +0.041987 0
-0.235509 +0.043568 0
-0.229523 +0.042415 0
-0.228375 +0.042362 0
-0.230000 +0.042343 0
-0.168043 +0.031378 0
-0.175239 +0.032792 0
-0.160328 +0.029869 0
-0.154157 +0.030085 0
-0.162700 +0.031620 0
-0.145140 +0.028458 0
-0.208400 +0.040367 0
-0.210454 +0.040630 0
-0.205739 +0.039987 0
-0.242545 +0.042418 0
-0.233391 +0.041794 0
-0.251606 +0.043019 0
-0.069607 +0.012618 0
-0.108509 +0.019931 0
-0.033764 +0.006045 0
-0.052402 +0.011092 0
-0.089892 +0.018242 0
-0.022938 +0.005103 0
-0.167775 +0.034891 0
-0.184094 +0.036907 0
-0.147768 +0.032381 0
+0.252626 -0.045917 0
+0.197399 -0.039028 0
+0.269395 -0.046660 0
+0.165282 -0.028883 0
+0.219212 -0.037633 0
+0.088736 -0.015646 0
+0.000000 +0.000000 0
+0.000000 +0.000000 0
+0.000000 +0.000000 0
+0.195603 -0.037763 0
+0.184231 -0.035616 0
+0.204823 -0.039484 0
+0.223710 -0.042300 0
+0.218834 -0.041731 0
+0.226292 -0.042450 0
+0.208622 -0.038999 0
+0.218766 -0.040818 0
+0.196264 -0.036751 0
+0.180310 -0.034315 0
+0.182099 -0.034394 0
+0.176553 -0.033874 0
+0.164930 -0.032934 0
+0.149165 -0.029686 0
+0.183352 -0.036342 0
+0.231492 -0.043443 0
+0.219476 -0.041987 0
+0.235509 -0.043568 0
+0.195671 -0.035832 0
+0.215961 -0.039474 0
+0.173401 -0.031946 0
+0.127846 -0.024412 0
+0.136400 -0.025675 0
+0.128763 -0.024970 0
+0.154157 -0.030085 0
+0.162700 -0.031620 0
+0.145140 -0.028458 0
+0.208400 -0.040367 0
+0.210454 -0.040630 0
+0.205739 -0.039987 0
+0.229523 -0.042415 0
+0.228375 -0.042362 0
+0.230000 -0.042343 0
+0.168043 -0.031378 0
+0.175239 -0.032792 0
+0.160328 -0.029869 0
+0.052402 -0.011092 0
+0.089892 -0.018242 0
+0.022938 -0.005103 0
+0.167775 -0.034891 0
+0.184094 -0.036907 0
+0.147768 -0.032381 0
+0.242545 -0.042418 0
+0.233391 -0.041794 0
+0.251606 -0.043019 0
+0.069607 -0.012618 0
+0.108509 -0.019931 0
+0.033764 -0.006045 0
+0.188323 -0.024861 0
+0.104823 -0.013838 0
+0.231806 -0.030602 0
+0.304071 -0.047205 0
+0.281869 -0.041142 0
+0.291850 -0.047222 0
+0.311697 -0.053089 0
+0.313520 -0.053834 0
+0.306591 -0.051769 0
+0.325054 -0.053424 0
+0.313397 -0.051940 0
+0.333058 -0.054323 0
+0.349617 -0.057613 0
+0.345157 -0.056407 0
+0.350581 -0.058219 0
+0.337388 -0.057307 0
+0.344616 -0.058070 0
+0.326460 -0.055939 0
+0.248137 -0.043918 0
+0.259944 -0.046454 0
+0.245295 -0.042377 0
+0.282035 -0.044767 0
+0.264203 -0.042850 0
+0.301721 -0.047499 0
+0.337947 -0.054614 0
+0.331416 -0.052806 0
+0.339464 -0.055778 0
+0.311008 -0.053940 0
+0.325323 -0.055424 0
+0.294410 -0.051880 0
+0.295549 -0.051872 0
+0.304204 -0.053006 0
+0.286007 -0.050583 0
+0.276053 -0.046177 0
+0.287615 -0.048111 0
+0.263670 -0.044106 0
+0.329771 -0.052729 0
+0.334017 -0.053752 0
+0.324547 -0.051548 0
+0.343567 -0.057470 0
+0.346368 -0.057939 0
+0.339738 -0.056830 0
+0.185770 -0.037267 0
+0.225514 -0.042375 0
+0.152310 -0.032981 0
+0.118370 -0.019800 0
+0.180798 -0.030243 0
+0.058849 -0.009844 0
+0.272826 -0.039445 0
+0.290921 -0.044012 0
+0.257799 -0.035621 0
+0.294891 -0.049328 0
+0.311475 -0.052102 0
+0.278011 -0.046504 0
+0.013702 +0.010758 0
-0.049157 +0.019458 0
+0.058428 +0.003383 0
+0.169785 -0.015351 0
+0.126558 -0.008013 0
+0.207123 -0.023412 0
+0.084673 +0.000763 0
+0.091849 -0.000830 0
+0.076917 +0.002291 0
+0.094667 +0.000269 0
+0.082319 +0.001974 0
+0.105520 -0.001354 0
+0.131770 -0.005937 0
+0.123617 -0.004381 0
+0.139045 -0.007515 0
+0.125199 -0.006016 0
+0.136195 -0.007625 0
+0.112499 -0.004284 0
+0.035949 +0.006415 0
+0.055282 +0.002696 0
+0.029187 +0.008284 0
+0.066080 +0.004159 0
+0.046998 +0.006809 0
+0.088104 +0.000846 0
+0.147815 -0.009513 0
+0.131009 -0.006331 0
+0.159274 -0.011972 0
+0.138795 -0.010789 0
+0.155937 -0.012918 0
+0.112649 -0.006900 0
+0.090987 -0.002277 0
+0.094798 -0.002373 0
+0.086905 -0.002175 0
+0.051137 +0.006105 0
+0.059952 +0.004933 0
+0.042155 +0.007261 0
+0.113239 -0.002834 0
+0.114163 -0.002857 0
+0.111977 -0.002803 0
+0.154968 -0.011264 0
+0.150405 -0.010198 0
+0.159083 -0.012298 0
+0.039015 -0.000976 0
+0.059591 -0.001492 0
+0.019396 -0.000485 0
-0.056487 +0.020199 0
-0.014113 +0.014467 0
-0.092441 +0.025077 0
+0.097196 -0.002433 0
+0.102662 -0.002570 0
+0.091632 -0.002293 0
+0.207641 -0.023983 0
+0.184330 -0.018728 0
+0.227612 -0.028460 0
+0.000000 +0.000000 0
+0.000000 +0.000000 0
+0.000000 +0.000000 0
+0.030996 +0.002971 0
+0.013990 +0.002085 0
+0.053919 +0.001576 0
-0.031421 +0.016089 0
-0.031780 +0.016640 0
-0.030511 +0.015323 0
-0.019545 +0.013092 0
-0.024346 +0.013781 0
-0.014764 +0.012304 0
-0.009225 +0.012676 0
-0.009848 +0.012141 0
-0.008198 +0.013020 0
-0.019011 +0.015277 0
-0.012804 +0.014266 0
-0.025307 +0.016182 0
-0.047258 +0.017399 0
-0.047405 +0.018396 0
-0.040848 +0.015387 0
-0.015394 +0.009566 0
-0.022791 +0.010980 0
-0.009384 +0.008907 0
+0.005539 +0.009269 0
+0.001259 +0.008888 0
+0.007506 +0.009974 0
-0.013436 +0.014657 0
-0.001710 +0.012703 0
-0.027936 +0.016701 0
-0.036012 +0.017610 0
-0.033797 +0.017309 0
-0.038113 +0.017858 0
-0.030909 +0.013815 0
-0.030118 +0.014118 0
-0.031624 +0.013472 0
-0.006761 +0.010087 0
-0.008373 +0.010763 0
-0.005136 +0.009381 0
-0.000804 +0.012221 0
-0.003830 +0.012719 0
+0.002240 +0.011684 0
-0.074483 +0.022575 0
-0.055534 +0.019935 0
-0.096982 +0.025677 0
-0.026953 +0.007732 0
-0.031315 +0.010509 0
-0.016515 +0.004255 0
+0.004421 +0.002845 0
+0.001918 +0.005353 0
+0.003578 +0.001115 0
+0.044850 +0.004478 0
+0.024578 +0.007739 0
+0.065227 +0.001192 0
+0.182647 -0.029317 0
+0.232769 -0.037972 0
+0.100019 -0.015928 0
+0.000000 +0.000000 0
+0.000000 +0.000000 0
+0.000000 +0.000000 0
+0.000000 +0.000000 0
+0.000000 +0.000000 0
+0.000000 +0.000000 0
+0.151304 -0.025403 0
+0.141997 -0.023878 0
+0.159105 -0.026666 0
+0.152619 -0.025436 0
+0.159829 -0.026684 0
+0.143760 -0.023922 0
+0.122621 -0.020451 0
+0.128708 -0.021429 0
+0.115233 -0.019249 0
+0.121774 -0.020430 0
+0.114857 -0.019240 0
+0.127293 -0.021394 0
+0.155578 -0.026321 0
+0.135619 -0.022983 0
+0.170676 -0.028732 0
+0.159754 -0.026426 0
+0.173237 -0.028796 0
+0.139803 -0.023088 0
+0.087186 -0.014492 0
+0.099995 -0.016569 0
+0.080875 -0.013487 0
+0.085892 -0.014460 0
+0.080293 -0.013472 0
+0.097781 -0.016514 0
+0.124101 -0.020955 0
+0.127970 -0.021579 0
+0.119856 -0.020268 0
+0.172021 -0.028775 0
+0.168882 -0.028250 0
+0.174670 -0.029218 0
+0.126854 -0.021024 0
+0.130397 -0.021640 0
+0.122938 -0.020345 0
+0.092695 -0.015506 0
+0.099716 -0.016680 0
+0.085376 -0.014281 0
+0.060534 -0.010465 0
+0.087624 -0.014977 0
+0.031474 -0.005502 0
+0.216152 -0.036157 0
+0.194020 -0.032455 0
+0.238292 -0.039860 0
+0.065309 -0.010585 0
+0.092119 -0.015090 0
+0.034807 -0.005585 0
+0.019140 -0.003202 0
+0.044057 -0.007370 0
+0.004831 -0.000808 0
+0.188323 -0.024861 0
+0.231806 -0.030602 0
+0.104823 -0.013838 0
+0.000000 +0.000000 0
+0.000000 +0.000000 0
+0.000000 +0.000000 0
+0.292299 -0.044016 0
+0.290921 -0.044067 0
+0.290891 -0.043534 0
+0.266518 -0.039538 0
+0.278252 -0.041322 0
+0.251702 -0.037305 0
+0.238715 -0.035777 0
+0.237592 -0.035402 0
+0.237405 -0.035779 0
+0.266297 -0.040443 0
+0.251386 -0.038130 0
+0.278153 -0.042304 0
+0.297855 -0.045104 0
+0.294179 -0.045036 0
+0.293634 -0.043843 0
+0.240081 -0.034815 0
+0.263102 -0.038339 0
+0.215733 -0.031352 0
+0.170392 -0.025476 0
+0.177004 -0.026177 0
+0.176587 -0.026680 0
+0.239270 -0.036923 0