# vtk DataFile Version 2.0
MyTitle
ASCII
DATASET UNSTRUCTURED_GRID
POINTS 1761 double
0.000000 0.000000 0.000000
1.000000 0.000000 0.000000
1.000000 1.000000 0.000000
0.000000 1.000000 0.000000
0.420000 0.420000 0.000000
0.580000 0.420000 0.000000
0.580000 0.580000 0.000000
0.420000 0.580000 0.000000
0.358579 0.358579 0.000000
0.641421 0.358579 0.000000
0.641421 0.641421 0.000000
0.358579 0.641421 0.000000
2.000000 0.000000 0.000000
2.000000 1.000000 0.000000
1.420000 0.420000 0.000000
1.580000 0.420000 0.000000
1.580000 0.580000 0.000000
1.420000 0.580000 0.000000
1.358579 0.358579 0.000000
1.641421 0.358579 0.000000
1.641421 0.641421 0.000000
1.358579 0.641421 0.000000
3.000000 0.000000 0.000000
3.000000 1.000000 0.000000
2.420000 0.420000 0.000000
2.580000 0.420000 0.000000
2.580000 0.580000 0.000000
2.420000 0.580000 0.000000
2.358579 0.358579 0.000000
2.641421 0.358579 0.000000
2.641421 0.641421 0.000000
2.358579 0.641421 0.000000
4.000000 0.000000 0.000000
4.000000 1.000000 0.000000
3.420000 0.420000 0.000000
3.580000 0.420000 0.000000
3.580000 0.580000 0.000000
3.420000 0.580000 0.000000
3.358579 0.358579 0.000000
3.641421 0.358579 0.000000
3.641421 0.641421 0.000000
3.358579 0.641421 0.000000
1.000000 2.000000 0.000000
0.000000 2.000000 0.000000
0.420000 1.420000 0.000000
0.580000 1.420000 0.000000
0.580000 1.580000 0.000000
0.420000 1.580000 0.000000
0.358579 1.358579 0.000000
0.641421 1.358579 0.000000
0.641421 1.641421 0.000000
0.358579 1.641421 0.000000
2.000000 2.000000 0.000000
1.420000 1.420000 0.000000
1.580000 1.420000 0.000000
1.580000 1.580000 0.000000
1.420000 1.580000 0.000000
1.358579 1.358579 0.000000
1.641421 1.358579 0.000000
1.641421 1.641421 0.000000
1.358579 1.641421 0.000000
3.000000 2.000000 0.000000
2.420000 1.420000 0.000000
2.580000 1.420000 0.000000
2.580000 1.580000 0.000000
2.420000 1.580000 0.000000
2.358579 1.358579 0.000000
2.641421 1.358579 0.000000
2.641421 1.641421 0.000000
2.358579 1.641421 0.000000
4.000000 2.000000 0.000000
3.420000 1.420000 0.000000
3.580000 1.420000 0.000000
3.580000 1.580000 0.000000
3.420000 1.580000 0.000000
3.358579 1.358579 0.000000
3.641421 1.358579 0.000000
3.641421 1.641421 0.000000
3.358579 1.641421 0.000000
1.000000 3.000000 0.000000
0.000000 3.000000 0.000000
0.420000 2.420000 0.000000
0.580000 2.420000 0.000000
0.580000 2.580000 0.000000
0.420000 2.580000 0.000000
0.358579 2.358579 0.000000
0.641421 2.358579 0.000000
0.641421 2.641421 0.000000
0.358579 2.641421 0.000000
2.000000 3.000000 0.000000
1.420000 2.420000 0.000000
1.580000 2.420000 0.000000
1.580000 2.580000 0.000000
1.420000 2.580000 0.000000
1.358579 2.358579 0.000000
1.641421 2.358579 0.000000
1.641421 2.641421 0.000000
1.358579 2.641421 0.000000
3.000000 3.000000 0.000000
2.420000 2.420000 0.000000
2.580000 2.420000 0.000000
2.580000 2.580000 0.000000
2.420000 2.580000 0.000000
2.358579 2.358579 0.000000
2.641421 2.358579 0.000000
2.641421 2.641421 0.000000
2.358579 2.641421 0.000000
4.000000 3.000000 0.000000
3.420000 2.420000 0.000000
3.580000 2.420000 0.000000
3.580000 2.580000 0.000000
3.420000 2.580000 0.000000
3.358579 2.358579 0.000000
3.641421 2.358579 0.000000
3.641421 2.641421 0.000000
3.358579 2.641421 0.000000
1.000000 4.000000 0.000000
0.000000 4.000000 0.000000
0.420000 3.420000 0.000000
0.580000 3.420000 0.000000
0.580000 3.580000 0.000000
0.420000 3.580000 0.000000
0.358579 3.358579 0.000000
0.641421 3.358579 0.000000
0.641421 3.641421 0.000000
0.358579 3.641421 0.000000
2.000000 4.000000 0.000000
1.420000 3.420000 0.000000
1.580000 3.420000 0.000000
1.580000 3.580000 0.000000
1.420000 3.580000 0.000000
1.358579 3.358579 0.000000
1.641421 3.358579 0.000000
1.641421 3.641421 0.000000
1.358579 3.641421 0.000000
3.000000 4.000000 0.000000
2.420000 3.420000 0.000000
2.580000 3.420000 0.000000
2.580000 3.580000 0.000000
2.420000 3.580000 0.000000
2.358579 3.358579 0.000000
2.641421 3.358579 0.000000
2.641421 3.641421 0.000000
2.358579 3.641421 0.000000
4.000000 4.000000 0.000000
3.420000 3.420000 0.000000
3.580000 3.420000 0.000000
3.580000 3.580000 0.000000
3.420000 3.580000 0.000000
3.358579 3.358579 0.000000
3.641421 3.358579 0.000000
3.641421 3.641421 0.000000
3.358579 3.641421 0.000000
0.500000 0.000000 0.000000
0.250000 0.000000 0.000000
0.750000 0.000000 0.000000
1.000000 0.500000 0.000000
1.000000 0.250000 0.000000
1.000000 0.750000 0.000000
0.500000 1.000000 0.000000
0.750000 1.000000 0.000000
0.250000 1.000000 0.000000
0.000000 0.500000 0.000000
0.000000 0.750000 0.000000
0.000000 0.250000 0.000000
0.500000 0.420000 0.000000
0.460000 0.420000 0.000000
0.540000 0.420000 0.000000
0.580000 0.500000 0.000000
0.580000 0.460000 0.000000
0.580000 0.540000 0.000000
0.500000 0.580000 0.000000
0.540000 0.580000 0.000000
0.460000 0.580000 0.000000
0.420000 0.500000 0.000000
0.420000 0.540000 0.000000
0.420000 0.460000 0.000000
0.500000 0.300001 0.000000
0.423464 0.315225 0.000000
0.576536 0.315225 0.000000
0.699999 0.500000 0.000000
0.684775 0.423464 0.000000
0.684775 0.576536 0.000000
0.500000 0.699999 0.000000
0.576536 0.684775 0.000000
0.423464 0.684775 0.000000
0.300001 0.500000 0.000000
0.315225 0.576536 0.000000
0.315225 0.423464 0.000000
0.389290 0.389290 0.000000
0.404645 0.404645 0.000000
0.373934 0.373934 0.000000
0.610710 0.389290 0.000000
0.595355 0.404645 0.000000
0.626066 0.373934 0.000000
0.610710 0.610710 0.000000
0.595355 0.595355 0.000000
0.626066 0.626066 0.000000
0.389290 0.610710 0.000000
0.404645 0.595355 0.000000
0.373934 0.626066 0.000000
0.179290 0.179290 0.000000
0.268934 0.268934 0.000000
0.089645 0.089645 0.000000
0.820710 0.179290 0.000000
0.731066 0.268934 0.000000
0.910355 0.089645 0.000000
0.820710 0.820710 0.000000
0.731066 0.731066 0.000000
0.910355 0.910355 0.000000
0.179290 0.820710 0.000000
0.268934 0.731066 0.000000
0.089645 0.910355 0.000000
1.500000 0.000000 0.000000
1.250000 0.000000 0.000000
1.750000 0.000000 0.000000
2.000000 0.500000 0.000000
2.000000 0.250000 0.000000
2.000000 0.750000 0.000000
1.500000 1.000000 0.000000
1.750000 1.000000 0.000000
1.250000 1.000000 0.000000
1.500000 0.420000 0.000000
1.460000 0.420000 0.000000
1.540000 0.420000 0.000000
1.580000 0.500000 0.000000
1.580000 0.460000 0.000000
1.580000 0.540000 0.000000
1.500000 0.580000 0.000000
1.540000 0.580000 0.000000
1.460000 0.580000 0.000000
1.420000 0.500000 0.000000
1.420000 0.540000 0.000000
1.420000 0.460000 0.000000
1.500000 0.300001 0.000000
1.423464 0.315225 0.000000
1.576536 0.315225 0.000000
1.699999 0.500000 0.000000
1.684775 0.423464 0.000000
1.684775 0.576536 0.000000
1.500000 0.699999 0.000000
1.576536 0.684775 0.000000
1.423464 0.684775 0.000000
1.300001 0.500000 0.000000
1.315225 0.576536 0.000000
1.315225 0.423464 0.000000
1.389290 0.389290 0.000000
1.404645 0.404645 0.000000
1.373934 0.373934 0.000000
1.610710 0.389290 0.000000
1.595355 0.404645 0.000000
1.626066 0.373934 0.000000
1.610710 0.610710 0.000000
1.595355 0.595355 0.000000
1.626066 0.626066 0.000000
1.389290 0.610710 0.000000
1.404645 0.595355 0.000000
1.373934 0.626066 0.000000
1.179290 0.179290 0.000000
1.268934 0.268934 0.000000
1.089645 0.089645 0.000000
1.820710 0.179290 0.000000
1.731066 0.268934 0.000000
1.910355 0.089645 0.000000
1.820710 0.820710 0.000000
1.731066 0.731066 0.000000
1.910355 0.910355 0.000000
1.179290 0.820710 0.000000
1.268934 0.731066 0.000000
1.089645 0.910355 0.000000
2.500000 0.000000 0.000000
2.250000 0.000000 0.000000
2.750000 0.000000 0.000000
3.000000 0.500000 0.000000
3.000000 0.250000 0.000000
3.000000 0.750000 0.000000
2.500000 1.000000 0.000000
2.750000 1.000000 0.000000
2.250000 1.000000 0.000000
2.500000 0.420000 0.000000
2.460000 0.420000 0.000000
2.540000 0.420000 0.000000
2.580000 0.500000 0.000000
2.580000 0.460000 0.000000
2.580000 0.540000 0.000000
2.500000 0.580000 0.000000
2.540000 0.580000 0.000000
2.460000 0.580000 0.000000
2.420000 0.500000 0.000000
2.420000 0.540000 0.000000
2.420000 0.460000 0.000000
2.500000 0.300001 0.000000
2.423464 0.315225 0.000000
2.576536 0.315225 0.000000
2.699999 0.500000 0.000000
2.684775 0.423464 0.000000
2.684775 0.576536 0.000000
2.500000 0.699999 0.000000
2.576536 0.684775 0.000000
2.423464 0.684775 0.000000
2.300001 0.500000 0.000000
2.315225 0.576536 0.000000
2.315225 0.423464 0.000000
2.389289 0.389289 0.000000
2.404645 0.404645 0.000000
2.373934 0.373934 0.000000
2.610711 0.389289 0.000000
2.595355 0.404645 0.000000
2.626066 0.373934 0.000000
2.610711 0.610711 0.000000
2.595355 0.595355 0.000000
2.626066 0.626066 0.000000
2.389289 0.610711 0.000000
2.404645 0.595355 0.000000
2.373934 0.626066 0.000000
2.179290 0.179290 0.000000
2.268934 0.268934 0.000000
2.089645 0.089645 0.000000
2.820710 0.179290 0.000000
2.731066 0.268934 0.000000
2.910355 0.089645 0.000000
2.820710 0.820710 0.000000
2.731066 0.731066 0.000000
2.910355 0.910355 0.000000
2.179290 0.820710 0.000000
2.268934 0.731066 0.000000
2.089645 0.910355 0.000000
3.500000 0.000000 0.000000
3.250000 0.000000 0.000000
3.750000 0.000000 0.000000
4.000000 0.500000 0.000000
4.000000 0.250000 0.000000
4.000000 0.750000 0.000000
3.500000 1.000000 0.000000
3.750000 1.000000 0.000000
3.250000 1.000000 0.000000
3.500000 0.420000 0.000000
3.460000 0.420000 0.000000
3.540000 0.420000 0.000000
3.580000 0.500000 0.000000
3.580000 0.460000 0.000000
3.580000 0.540000 0.000000
3.500000 0.580000 0.000000
3.540000 0.580000 0.000000
3.460000 0.580000 0.000000
3.420000 0.500000 0.000000
3.420000 0.540000 0.000000
3.420000 0.460000 0.000000
3.500000 0.300001 0.000000
3.423464 0.315225 0.000000
3.576536 0.315225 0.000000
3.699999 0.500000 0.000000
3.684775 0.423464 0.000000
3.684775 0.576536 0.000000
3.500000 0.699999 0.000000
3.576536 0.684775 0.000000
3.423464 0.684775 0.000000
3.300001 0.500000 0.000000
3.315225 0.576536 0.000000
3.315225 0.423464 0.000000
3.389289 0.389289 0.000000
3.404645 0.404645 0.000000
3.373934 0.373934 0.000000
3.610711 0.389289 0.000000
3.595355 0.404645 0.000000
3.626066 0.373934 0.000000
3.610711 0.610711 0.000000
[...]
POINT_DATA 1761
VECTORS sol double
+0.000000 +0.000000 0
+0.000000 +0.000000 0
+0.100276 +0.013387 0
+0.000000 +0.000000 0
+0.250793 +0.033481 0
+0.277527 +0.044728 0
+0.300541 +0.040122 0
+0.270685 +0.028458 0
+0.185976 +0.024828 0
+0.225961 +0.042050 0
+0.264366 +0.035293 0
+0.215371 +0.016867 0
+0.000000 +0.000000 0
-0.043471 +0.055776 0
+0.168805 +0.184224 0
+0.135797 +0.181027 0
+0.140397 +0.195625 0
+0.177879 +0.197504 0
+0.145338 +0.145494 0
+0.096247 +0.139955 0
+0.100765 +0.163914 0
+0.162772 +0.165643 0
+0.000000 +0.000000 0
-0.038799 -0.092265 0
-0.212033 -0.083212 0
-0.223620 -0.113893 0
-0.238947 -0.119150 0
-0.227504 -0.083862 0
-0.161687 -0.055992 0
-0.179688 -0.101421 0
-0.203882 -0.112896 0
-0.186302 -0.054165 0
+0.000000 +0.000000 0
+0.000000 +0.000000 0
-0.114898 -0.253390 0
-0.097037 -0.230758 0
-0.097216 -0.251029 0
-0.116285 -0.276532 0
-0.099065 -0.204865 0
-0.071958 -0.171120 0
-0.071696 -0.201211 0
-0.102289 -0.243247 0
-0.098340 -0.074707 0
+0.000000 +0.000000 0
+0.024733 -0.158387 0
+0.023054 -0.170679 0
-0.017213 -0.179180 0
-0.009353 -0.164147 0
+0.032984 -0.121688 0
+0.034538 -0.139303 0
-0.033303 -0.154907 0
-0.017010 -0.129377 0
+0.000000 +0.000000 0
-0.099608 -0.013298 0
-0.105555 +0.008780 0
-0.124349 -0.016600 0
-0.125935 -0.039684 0
-0.067056 -0.008952 0
-0.081622 +0.025358 0
-0.106740 -0.014250 0
-0.113926 -0.051463 0
+0.098340 +0.074707 0
+0.018448 +0.102983 0
+0.038540 +0.091651 0
+0.071120 +0.110015 0
+0.048113 +0.114415 0
-0.003915 +0.084391 0
+0.025945 +0.061699 0
+0.079576 +0.095537 0
+0.041300 +0.098213 0
+0.000000 +0.000000 0
+0.161202 -0.065731 0
+0.148736 -0.064184 0
+0.163109 -0.033131 0
+0.179842 -0.029482 0
+0.127539 -0.068652 0
+0.110692 -0.062656 0
+0.131029 -0.016915 0
+0.160199 -0.007908 0
+0.038799 +0.092265 0
+0.000000 +0.000000 0
-0.163109 +0.033131 0
-0.179842 +0.029482 0
-0.161202 +0.065731 0
-0.148736 +0.064184 0
-0.131029 +0.016915 0
-0.160199 +0.007908 0
-0.127539 +0.068652 0
-0.110692 +0.062656 0
+0.043471 -0.055776 0
-0.071120 -0.110015 0
-0.048113 -0.114415 0
-0.018448 -0.102983 0
-0.038540 -0.091651 0
-0.079576 -0.095537 0
-0.041300 -0.098213 0
+0.003915 -0.084391 0
-0.025945 -0.061699 0
-0.100276 -0.013387 0
+0.124349 +0.016600 0
+0.125935 +0.039684 0
+0.099608 +0.013298 0
+0.105555 -0.008780 0
+0.106740 +0.014250 0
+0.113926 +0.051463 0
+0.067056 +0.008952 0
+0.081622 -0.025358 0
+0.000000 +0.000000 0
+0.017213 +0.179180 0
+0.009353 +0.164147 0
-0.024733 +0.158387 0
-0.023054 +0.170679 0
+0.033303 +0.154907 0
+0.017010 +0.129377 0
-0.032984 +0.121688 0
-0.034538 +0.139303 0
+0.000000 +0.000000 0
+0.000000 +0.000000 0
+0.097216 +0.251029 0
+0.116285 +0.276532 0
+0.114898 +0.253390 0
+0.097037 +0.230758 0
+0.071696 +0.201211 0
+0.102289 +0.243247 0
+0.099065 +0.204865 0
+0.071958 +0.171120 0
+0.000000 +0.000000 0
+0.238947 +0.119150 0
+0.227504 +0.083862 0
+0.212033 +0.083212 0
+0.223620 +0.113893 0
+0.203882 +0.112896 0
+0.186302 +0.054165 0
+0.161687 +0.055992 0
+0.179688 +0.101421 0
+0.000000 +0.000000 0
-0.140397 -0.195625 0
-0.177879 -0.197504 0
-0.168805 -0.184224 0
-0.135797 -0.181027 0
-0.100765 -0.163914 0
-0.162772 -0.165643 0
-0.145338 -0.145494 0
-0.096247 -0.139955 0
+0.000000 +0.000000 0
-0.300541 -0.040122 0
-0.270685 -0.028458 0
-0.250793 -0.033481 0
-0.277527 -0.044728 0
-0.264366 -0.035293 0
-0.215371 -0.016867 0
-0.185976 -0.024828 0
-0.225961 -0.042050 0
+0.000000 +0.000000 0
+0.000000 +0.000000 0
+0.000000 +0.000000 0
+0.171858 +0.077115 0
+0.107331 +0.050888 0
+0.159772 +0.059410 0
+0.123589 -0.037673 0
+0.125841 -0.021281 0
+0.074755 -0.026580 0
+0.000000 +0.000000 0
+0.000000 +0.000000 0
+0.000000 +0.000000 0
+0.276194 +0.040108 0
+0.266361 +0.037006 0
+0.279923 +0.042701 0
+0.302634 +0.045202 0
+0.293338 +0.045656 0
+0.305015 +0.043331 0
+0.298356 +0.035029 0
+0.302688 +0.037797 0
+0.287549 +0.031891 0
+0.273310 +0.033250 0
+0.275173 +0.031404 0
+0.265072 +0.033940 0
+0.195489 +0.030915 0
+0.189900 +0.027547 0
+0.209511 +0.036053 0
+0.258572 +0.048603 0
+0.245077 +0.047153 0
+0.266077 +0.044076 0
+0.246023 +0.018760 0
+0.258455 +0.025949 0
+0.232215 +0.016565 0
+0.191196 +0.020707 0
+0.202308 +0.018924 0
+0.187943 +0.022894 0
+0.220783 +0.029474 0
+0.236354 +0.031553 0
+0.203817 +0.027209 0
+0.255015 +0.044046 0
+0.267079 +0.044555 0
+0.241394 +0.043299 0
+0.286175 +0.038204 0
+0.294249 +0.039282 0
+0.276396 +0.036899 0
+0.246103 +0.022853 0
+0.259148 +0.025696 0
+0.231528 +0.019835 0
+0.044840 +0.005986 0
+0.103630 +0.013834 0
+0.011435 +0.001527 0
+0.093615 +0.028506 0
+0.152320 +0.035578 0
+0.043988 +0.016870 0
+0.171843 +0.022941 0
+0.211027 +0.028172 0
+0.136306 +0.018197 0
+0.079351 -0.005415 0
+0.138737 +0.003278 0
+0.034188 -0.006433 0
+0.000000 +0.000000 0
+0.000000 +0.000000 0
+0.000000 +0.000000 0
-0.036999 +0.047472 0
-0.021219 +0.027225 0
-0.042900 +0.055043 0
+0.032508 +0.079190 0
-0.006163 +0.077242 0
+0.068123 +0.052774 0
+0.158701 +0.190859 0
+0.165454 +0.189572 0
+0.148701 +0.187969 0
+0.145438 +0.197317 0
+0.142403 +0.191331 0
+0.144753 +0.198740 0
+0.165691 +0.205246 0
+0.154522 +0.202573 0
+0.173534 +0.203509 0
+0.181910 +0.200099 0
+0.182033 +0.201124 0
+0.177424 +0.194380 0
+0.114077 +0.135371 0
+0.128707 +0.139729 0
+0.104671 +0.136901 0
+0.088852 +0.152020 0
+0.091693 +0.146389 0
+0.092882 +0.159323 0
+0.129619 +0.168114 0
+0.114249 +0.167922 0
+0.147793 +0.167935 0
+0.172351 +0.159230 0
+0.172778 +0.163784 0
+0.162081 +0.153642 0
+0.159303 +0.166851 0
+0.164616 +0.176020 0
+0.153037 +0.156667 0
+0.117155 +0.162435 0
+0.126734 +0.172202 0
+0.106836 +0.151642 0
+0.122043 +0.182029 0
+0.131587 +0.189363 0
+0.111706 +0.173573 0
+0.172561 +0.183977 0
+0.175743 +0.191332 0
+0.168359 +0.175515 0
+0.074176 +0.053447 0
+0.107395 +0.093219 0
+0.039030 +0.023230 0
+0.015340 +0.043837 0
+0.048150 +0.085018 0
-0.000021 +0.016225 0
+0.004855 +0.090168 0
+0.047254 +0.120656 0
-0.024902 +0.069383 0
+0.126360 +0.081297 0
+0.140330 +0.118881 0
+0.113872 +0.046982 0
+0.000000 +0.000000 0
+0.000000 +0.000000 0
+0.000000 +0.000000 0
-0.119534 -0.144250 0
-0.077323 -0.089390 0
-0.099103 -0.137252 0
-0.085862 -0.010733 0
-0.069124 -0.051490 0
-0.074047 +0.025672 0
-0.227527 -0.102551 0
-0.222136 -0.093748 0
-0.227997 -0.109325 0
-0.242520 -0.122332 0
-0.235772 -0.119516 0
-0.243555 -0.122187 0
-0.243404 -0.105535 0
-0.243713 -0.113465 0
-0.237925 -0.095562 0
-0.230452 -0.088239 0
-0.231670 -0.087221 0
-0.223813 -0.086877 0
-0.161767 -0.074182 0
-0.160855 -0.064813 0
-0.169782 -0.087027 0
-0.200057 -0.123681 0
-0.191955 -0.115312 0
-0.204626 -0.122921 0
-0.197807 -0.080624 0
-0.202288 -0.098014 0
-0.193681 -0.066006 0
-0.171605 -0.045843 0
-0.179788 -0.047819 0
-0.166819 -0.049997 0
-0.189054 -0.070186 0
-0.201070 -0.076824 0
-0.175842 -0.063103 0
-0.204176 -0.109276 0
-0.214515 -0.111998 0
-0.192599 -0.105906 0
-0.224340 -0.117541 0
-0.232357 -0.118693 0
-0.214979 -0.115699 0
-0.209490 -0.069829 0
-0.219116 -0.077059 0
-0.198562 -0.062132 0
-0.046850 -0.003407 0
-0.095576 -0.024168 0
-0.015880 +0.004177 0
-0.071334 -0.057094 0
-0.118785 -0.078605 0
-0.032744 -0.031296 0
-0.111972 -0.099759 0
-0.152348 -0.103460 0
-0.075174 -0.096632 0
-0.089525 +0.018469 0
-0.130239 -0.014182 0
-0.061551 +0.041542 0
+0.000000 +0.000000 0
+0.000000 +0.000000 0
+0.000000 +0.000000 0
+0.000000 +0.000000 0
+0.000000 +0.000000 0
+0.000000 +0.000000 0
+0.005219 -0.127596 0
+0.006870 -0.078150 0
-0.011406 -0.125545 0
-0.110034 -0.253302 0
-0.113528 -0.256196 0
-0.104477 -0.244712 0
-0.102580 -0.252307 0
-0.101145 -0.244267 0
-0.101250 -0.254557 0
-0.110739 -0.275752 0
-0.104898 -0.266243 0
-0.114559 -0.279177 0
-0.121796 -0.277228 0
-0.120573 -0.279980 0
-0.119858 -0.268240 0
-0.080356 -0.178638 0
-0.088979 -0.190703 0
-0.075626 -0.174167 0
-0.069261 -0.177157 0
-0.070569 -0.173492 0
-0.070362 -0.188218 0
-0.081402 -0.229978 0
-0.075715 -0.217363 0
-0.091626 -0.240000 0
-0.113836 -0.234308 0
-0.111326 -0.242630 0
-0.108959 -0.221801 0
-0.108463 -0.232081 0
-0.112052 -0.243463 0
-0.104242 -0.219274 0
-0.085426 -0.203146 0
-0.091450 -0.217473 0
-0.078861 -0.187535 0
-0.085430 -0.229006 0
-0.091555 -0.240727 0
-0.078741 -0.215869 0
-0.110727 -0.263314 0
-0.113851 -0.270743 0
-0.106943 -0.254316 0
-0.051895 -0.082035 0
-0.073860 -0.136246 0
-0.027787 -0.037656 0
-0.017350 -0.041258 0
-0.040096 -0.095351 0
-0.004424 -0.010521 0
-0.015029 -0.077114 0
-0.038756 -0.131560 0
-0.002461 -0.034275 0
-0.066489 -0.158115 0
-0.081651 -0.194169 0
-0.052740 -0.125418 0
-0.034187 -0.079414 0
+0.029203 -0.039781 0
-0.075722 -0.088174 0
-0.083700 -0.063585 0
-0.097048 -0.073725 0
-0.048001 -0.036466 0
+0.000000 +0.000000 0
+0.000000 +0.000000 0
+0.000000 +0.000000 0
+0.025252 -0.172443 0
+0.025328 -0.167313 0
+0.024475 -0.173555 0
+0.002517 -0.182791 0
+0.012841 -0.178628 0
-0.007598 -0.182959 0
-0.013080 -0.179648 0
-0.015115 -0.181433 0
-0.011142 -0.173807 0
+0.007515 -0.168669 0
-0.001099 -0.168265 0
+0.016219 -0.165319 0
+0.050972 -0.129416 0
+0.044460 -0.126069 0
+0.047391 -0.134392 0
-0.004760 -0.151445 0
+0.015736 -0.146104 0
-0.021787 -0.155578 0
-0.036036 -0.144969 0
-0.038034 -0.152001 0
-0.027839 -0.137865 0
+0.007025 -0.119204 0
-0.004864 -0.123577 0
+0.019512 -0.119942 0
+0.029581 -0.141635 0
+0.027356 -0.150392 0
+0.031644 -0.132012 0
+0.029156 -0.157048 0
+0.026163 -0.164378 0
+0.031994 -0.148769 0
-0.025636 -0.169159 0
-0.021491 -0.174666 0
-0.029667 -0.162621 0
-0.013646 -0.148617 0
-0.011631 -0.156836 0
-0.015576 -0.139459 0
+0.035376 -0.038822 0
+0.037107 -0.073928 0
+0.022974 -0.014952 0
+0.068952 -0.055224 0
+0.051094 -0.093326 0
+0.085554 -0.020359 0
-0.074911 -0.099520 0
-0.054635 -0.121641 0
-0.089688 -0.084681 0
-0.021897 -0.044713 0
-0.021877 -0.081510 0
-0.014480 -0.018161 0
-0.036999 +0.047472 0
-0.042900 +0.055043 0
-0.021219 +0.027225 0
-0.083700 -0.063585 0
-0.048001 -0.036466 0
-0.097048 -0.073725 0
-0.107414 -0.002226 0
-0.104678 -0.007843 0
-0.107699 +0.003368 0
-0.120357 -0.004602 0
-0.114201 +0.002018 0
-0.123768 -0.010874 0
-0.130573 -0.028897 0
-0.128801 -0.022844 0
-0.129584 -0.034563 0
-0.118208 -0.027894 0
-0.123512 -0.034235 0
-0.110141 -0.020835 0
-0.065433 +0.019937 0
-0.063271 +0.007594 0
-0.073506 +0.025288 0
-0.095319 +0.012110 0
-0.089913 +0.020457 0
-0.101114 -0.000083 0
-0.117447 -0.040514 0
-0.113069 -0.028511 0
-0.118837 -0.048325 0
-0.090981 -0.040818 0
-0.104783 -0.049090 0
-0.077564 -0.026395 0
-0.084457 -0.011275 0
-0.092343 -0.012328 0
-0.076042 -0.010152 0
-0.094480 +0.017542 0
-0.100205 +0.013275 0
-0.088177 +0.021725 0
-0.117274 -0.015656 0
-0.121251 -0.016187 0
-0.112557 -0.015026 0
-0.121349 -0.046354 0
-0.123954 -0.043200 0
-0.118025 -0.049253 0
+0.023469 +0.003133 0
-0.019604 -0.002617 0
+0.063119 +0.008426 0
-0.039120 +0.056761 0
-0.054375 +0.043450 0
-0.036116 +0.060864 0
-0.051397 -0.006861 0
-0.077356 -0.010327 0
-0.025936 -0.003462 0
-0.094350 -0.074579 0
-0.099559 -0.064000 0
-0.094645 -0.078321 0
+0.086512 +0.012278 0
+0.031467 -0.038061 0
+0.105730 +0.049672 0
+0.083700 +0.063585 0
+0.097048 +0.073725 0
+0.048001 +0.036466 0
+0.029700 +0.101937 0
+0.024296 +0.103643 0
+0.034499 +0.097887 0
+0.057597 +0.105661 0
+0.048618 +0.099772 0
+0.065164 +0.109099 0
+0.061747 +0.117205 0
+0.067041 +0.114809 0
+0.055366 +0.117065 0
+0.035343 +0.113680 0
+0.042358 +0.115328 0
+0.027285 +0.109502 0
-0.002755 +0.067552 0
-0.005926 +0.076628 0
+0.008776 +0.062326 0
+0.063275 +0.076367 0
+0.045716 +0.067258 0
+0.074910 +0.087419 0
+0.069758 +0.101702 0
+0.077762 +0.101027 0
+0.056884 +0.100599 0
+0.012566 +0.094067 0
+0.025988 +0.096474 0
+0.003008 +0.091048 0
+0.007032 +0.094658 0
+0.012676 +0.099029 0
+0.001321 +0.089716 0
+0.032678 +0.077710 0
+0.035729 +0.084966 0
+0.029422 +0.069968 0
+0.076476 +0.103929 0
+0.074055 +0.107223 0
+0.078462 +0.100014 0
+0.045376 +0.107905 0
+0.046915 +0.111565 0
+0.043551 +0.103566 0
-0.045550 +0.051876 0
-0.028609 +0.063024 0
-0.050337 +0.050061 0
-0.009081 -0.021594 0
+0.007585 +0.018038 0
-0.024422 -0.058077 0
+0.097193 +0.070932 0
+0.088170 +0.078614 0
+0.100932 +0.070255 0
+0.019887 +0.047292 0
+0.029931 +0.071177 0
+0.010035 +0.023864 0
+0.000000 +0.000000 0
+0.000000 +0.000000 0
+0.000000 +0.000000 0
+0.083700 +0.063585 0
+0.048001 +0.036466 0
+0.097048 +0.073725 0
+0.162365 -0.068280 0
+0.163653 -0.067825 0
+0.157323 -0.067039 0
+0.163215 -0.050387 0
+0.157704 -0.057835 0
+0.165026 -0.042063 0
+0.179240 -0.033546 0
+0.173026 -0.033899 0
+0.181510 -0.032062 0
+0.178322 -0.049235 0
+0.181078 -0.039625 0
+0.171601 -0.058021 0
+0.113649 -0.081802 0
+0.119438 -0.079659 0
+0.112040 -0.074729 0
+0.114910 -0.037246 0
+0.112433 -0.049352 0
+0.122238 -0.027021 0
+0.151169 -0.002753 0
+0.142113 -0.008755 0
+0.158566 -0.002649 0
+0.149496 -0.034260 0
+0.157906 -0.019069 0
+0.139015 -0.052451 0
+0.146292 -0.068062 0
+0.154235 -0.067083 0
+0.137459 -0.068649 0
+0.131093 -0.064518 0
+0.140237 -0.064639 0
+0.121143 -0.064022 0
+0.149004 -0.025055 0
+0.156535 -0.029084 0
+0.140532 -0.020867 0
+0.172188 -0.018876 0
+0.176518 -0.024242 0
+0.166820 -0.013354 0
+0.036402 -0.079951 0
+0.078283 -0.072671 0
-0.001987 -0.086862 0
+0.028946 -0.043707 0
+0.062874 -0.054354 0
+0.008753 -0.025756 0
+0.049387 +0.009440 0
+0.085410 -0.000007 0
+0.021491 +0.009166 0
+0.116632 +0.045991 0
+0.133094 +0.020973 0
+0.105889 +0.063895 0
-0.086512 -0.012278 0
-0.105730 -0.049672 0
-0.031467 +0.038061 0
-0.005219 +0.127596 0
+0.011406 +0.125545 0
-0.006870 +0.078150 0
+0.000000 +0.000000 0
+0.000000 +0.000000 0
+0.000000 +0.000000 0
-0.179240 +0.033546 0
-0.173026 +0.033899 0
-0.181510 +0.032062 0
-0.178322 +0.049235 0
-0.181078 +0.039625 0
-0.171601 +0.058021 0
-0.162365 +0.068280 0
-0.163653 +0.067825 0
-0.157323 +0.067039 0
-0.163215 +0.050387 0
-0.157704 +0.057835 0
-0.165026 +0.042063 0
-0.151169 +0.002753 0
-0.142113 +0.008755 0
-0.158566 +0.002649 0
-0.149496 +0.034260 0
-0.157906 +0.019069 0
-0.139015 +0.052451 0
-0.113649 +0.081802 0
-0.119438 +0.079659 0
-0.112040 +0.074729 0
-0.114910 +0.037246 0
-0.112433 +0.049352 0
-0.122238 +0.027021 0
-0.149004 +0.025055 0
-0.156535 +0.029084 0
-0.140532 +0.020867 0
-0.172188 +0.018876 0
-0.176518 +0.024242 0
-0.166820 +0.013354 0
-0.146292 +0.068062 0
-0.154235 +0.067083 0
-0.137459 +0.068649 0
-0.131093 +0.064518 0
-0.140237 +0.064639 0
-0.121143 +0.064022 0
-0.049387 -0.009440 0
-0.085410 +0.000007 0
-0.021491 -0.009166 0
-0.116632 -0.045991 0
-0.133094 -0.020973 0
-0.105889 -0.063895 0
-0.036402 +0.079951 0
-0.078283 +0.072671 0
+0.001987 +0.086862 0
-0.028946 +0.043707 0
-0.062874 +0.054354 0
-0.008753 +0.025756 0
+0.036999 -0.047472 0
+0.021219 -0.027225 0
+0.042900 -0.055043 0
+0.085862 +0.010733 0
+0.074047 -0.025672 0
+0.069124 +0.051490 0
-0.061747 -0.117205 0
-0.067041 -0.114809 0
-0.055366 -0.117065 0
-0.035343 -0.113680 0
-0.042358 -0.115328 0
-0.027285 -0.109502 0
-0.029700 -0.101937 0
-0.024296 -0.103643 0
-0.034499 -0.097887 0
-0.057597 -0.105661 0
-0.048618 -0.099772 0
-0.065164 -0.109099 0
-0.069758 -0.101702 0
-0.077762 -0.101027 0
-0.056884 -0.100599 0
-0.012566 -0.094067 0
-0.025988 -0.096474 0
-0.003008 -0.091048 0
+0.002755 -0.067552 0
+0.005926 -0.076628 0
-0.008776 -0.062326 0
-0.063275 -0.076367 0
-0.045716 -0.067258 0
-0.074910 -0.087419 0
-0.076476 -0.103929 0
-0.074055 -0.107223 0
-0.078462 -0.100014 0
-0.045376 -0.107905 0
-0.046915 -0.111565 0
-0.043551 -0.103566 0
-0.007032 -0.094658 0
-0.012676 -0.099029 0
-0.001321 -0.089716 0
-0.032678 -0.077710 0
-0.035729 -0.084966 0
-0.029422 -0.069968 0
-0.097193 -0.070932 0
-0.088170 -0.078614 0
-0.100932 -0.070255 0
-0.019887 -0.047292 0
-0.029931 -0.071177 0
-0.010035 -0.023864 0
+0.045550 -0.051876 0
+0.028609 -0.063024 0
+0.050337 -0.050061 0
+0.009081 +0.021594 0
-0.007585 -0.018038 0
+0.024422 +0.058077 0
+0.034187 +0.079414 0
+0.075722 +0.088174 0
-0.029203 +0.039781 0
-0.032508 -0.079190 0
-0.068123 -0.052774 0
+0.006163 -0.077242 0
+0.130573 +0.028897 0
+0.128801 +0.022844 0
+0.129584 +0.034563 0
+0.118208 +0.027894 0
+0.123512 +0.034235 0
+0.110141 +0.020835 0
+0.107414 +0.002226 0
+0.104678 +0.007843 0
+0.107699 -0.003368 0
+0.120357 +0.004602 0
+0.114201 -0.002018 0
+0.123768 +0.010874 0
+0.117447 +0.040514 0
+0.113069 +0.028511 0
+0.118837 +0.048325 0
+0.090981 +0.040818 0
+0.104783 +0.049090 0
+0.077564 +0.026395 0
+0.065433 -0.019937 0
+0.063271 -0.007594 0
+0.073506 -0.025288 0
+0.095319 -0.012110 0
+0.089913 -0.020457 0
+0.101114 +0.000083 0
+0.117274 +0.015656 0
+0.121251 +0.016187 0
+0.112557 +0.015026 0
+0.121349 +0.046354 0
+0.123954 +0.043200 0
+0.118025 +0.049253 0
+0.084457 +0.011275 0
+0.092343 +0.012328 0
+0.076042 +0.010152 0
+0.094480 -0.017542 0
+0.100205 -0.013275 0
+0.088177 -0.021725 0
+0.051397 +0.006861 0
+0.077356 +0.010327 0
+0.025936 +0.003462 0
+0.094350 +0.074579 0
+0.099559 +0.064000 0
+0.094645 +0.078321 0
-0.023469 -0.003133 0
+0.019604 +0.002617 0
-0.063119 -0.008426 0
+0.039120 -0.056761 0
+0.054375 -0.043450 0
+0.036116 -0.060864 0
+0.000000 +0.000000 0
+0.000000 +0.000000 0
+0.000000 +0.000000 0
-0.123589 +0.037673 0
-0.074755 +0.026580 0
-0.125841 +0.021281 0
+0.013080 +0.179648 0
+0.015115 +0.181433 0
+0.011142 +0.173807 0
-0.007515 +0.168669 0
+0.001099 +0.168265 0
-0.016219 +0.165319 0
-0.025252 +0.172443 0
-0.025328 +0.167313 0
-0.024475 +0.173555 0
-0.002517 +0.182791 0
-0.012841 +0.178628 0
+0.007598 +0.182959 0
+0.036036 +0.144969 0
+0.038034 +0.152001 0
+0.027839 +0.137865 0
-0.007025 +0.119204 0
+0.004864 +0.123577 0
-0.019512 +0.119942 0
-0.050972 +0.129416 0
-0.044460 +0.126069 0
-0.047391 +0.134392 0
+0.004760 +0.151445 0
-0.015736 +0.146104 0
+0.021787 +0.155578 0
+0.025636 +0.169159 0
+0.021491 +0.174666 0
+0.029667 +0.162621 0
+0.013646 +0.148617 0
+0.011631 +0.156836 0
+0.015576 +0.139459 0
-0.029581 +0.141635 0
-0.027356 +0.150392 0
-0.031644 +0.132012 0
-0.029156 +0.157048 0
-0.026163 +0.164378 0
-0.031994 +0.148769 0
+0.074911 +0.099520 0
+0.054635 +0.121641 0
+0.089688 +0.084681 0
+0.021897 +0.044713 0
+0.021877 +0.081510 0
+0.014480 +0.018161 0
-0.035376 +0.038822 0
-0.037107 +0.073928 0
-0.022974 +0.014952 0
-0.068952 +0.055224 0
-0.051094 +0.093326 0
-0.085554 +0.020359 0
+0.119534 +0.144250 0
+0.099103 +0.137252 0
+0.077323 +0.089390 0
+0.000000 +0.000000 0
+0.000000 +0.000000 0
+0.000000 +0.000000 0
+0.000000 +0.000000 0
+0.000000 +0.000000 0
+0.000000 +0.000000 0
+0.110739 +0.275752 0
+0.104898 +0.266243 0
+0.114559 +0.279177 0
+0.121796 +0.277228 0
+0.120573 +0.279980 0
+0.119858 +0.268240 0
+0.110034 +0.253302 0
+0.113528 +0.256196 0
+0.104477 +0.244712 0
+0.102580 +0.252307 0
+0.101145 +0.244267 0
+0.101250 +0.254557 0
+0.081402 +0.229978 0
+0.075715 +0.217363 0
+0.091626 +0.240000 0
+0.113836 +0.234308 0
+0.111326 +0.242630 0
+0.108959 +0.221801 0
+0.080356 +0.178638 0
+0.088979 +0.190703 0
+0.075626 +0.174167 0
+0.069261 +0.177157 0
+0.070569 +0.173492 0
+0.070362 +0.188218 0
+0.085430 +0.229006 0
+0.091555 +0.240727 0
+0.078741 +0.215869 0
+0.110727 +0.263314 0
+0.113851 +0.270743 0
+0.106943 +0.254316 0
+0.108463 +0.232081 0
+0.112052 +0.243463 0
+0.104242 +0.219274 0
+0.085426 +0.203146 0
+0.091450 +0.217473 0
+0.078861 +0.187535 0
+0.015029 +0.077114 0
+0.038756 +0.131560 0
+0.002461 +0.034275 0
+0.066489 +0.158115 0
+0.081651 +0.194169 0
+0.052740 +0.125418 0
+0.051895 +0.082035 0
+0.073860 +0.136246 0
+0.027787 +0.037656 0
+0.017350 +0.041258 0
+0.040096 +0.095351 0
+0.004424 +0.010521 0
+0.036999 -0.047472 0
+0.042900 -0.055043 0
+0.021219 -0.027225 0
+0.000000 +0.000000 0
+0.000000 +0.000000 0
+0.000000 +0.000000 0
+0.243404 +0.105535 0
+0.243713 +0.113465 0
+0.237925 +0.095562 0
+0.230452 +0.088239 0
+0.231670 +0.087221 0
+0.223813 +0.086877 0
+0.227527 +0.102551 0
+0.222136 +0.093748 0
+0.227997 +0.109325 0
+0.242520 +0.122332 0
+0.235772 +0.119516 0
+0.243555 +0.122187 0
+0.197807 +0.080624 0
+0.202288 +0.098014 0
+0.193681 +0.066006 0
+0.171605 +0.045843 0
+0.179788 +0.047819 0
+0.166819 +0.049997 0
+0.161767 +0.074182 0
+0.160855 +0.064813 0
+0.169782 +0.087027 0
+0.200057 +0.123681 0