# vtk DataFile Version 2.0
MyTitle
ASCII
DATASET UNSTRUCTURED_GRID
POINTS 1761 double
0.000000 0.000000 0.000000
1.000000 0.000000 0.000000
1.000000 1.000000 0.000000
0.000000 1.000000 0.000000
0.420000 0.420000 0.000000
0.580000 0.420000 0.000000
0.580000 0.580000 0.000000
0.420000 0.580000 0.000000
0.358579 0.358579 0.000000
0.641421 0.358579 0.000000
0.641421 0.641421 0.000000
0.358579 0.641421 0.000000
2.000000 0.000000 0.000000
2.000000 1.000000 0.000000
1.420000 0.420000 0.000000
1.580000 0.420000 0.000000
1.580000 0.580000 0.000000
1.420000 0.580000 0.000000
1.358579 0.358579 0.000000
1.641421 0.358579 0.000000
1.641421 0.641421 0.000000
1.358579 0.641421 0.000000
3.000000 0.000000 0.000000
3.000000 1.000000 0.000000
2.420000 0.420000 0.000000
2.580000 0.420000 0.000000
2.580000 0.580000 0.000000
2.420000 0.580000 0.000000
2.358579 0.358579 0.000000
2.641421 0.358579 0.000000
2.641421 0.641421 0.000000
2.358579 0.641421 0.000000
4.000000 0.000000 0.000000
4.000000 1.000000 0.000000
3.420000 0.420000 0.000000
3.580000 0.420000 0.000000
3.580000 0.580000 0.000000
3.420000 0.580000 0.000000
3.358579 0.358579 0.000000
3.641421 0.358579 0.000000
3.641421 0.641421 0.000000
3.358579 0.641421 0.000000
1.000000 2.000000 0.000000
0.000000 2.000000 0.000000
0.420000 1.420000 0.000000
0.580000 1.420000 0.000000
0.580000 1.580000 0.000000
0.420000 1.580000 0.000000
0.358579 1.358579 0.000000
0.641421 1.358579 0.000000
0.641421 1.641421 0.000000
0.358579 1.641421 0.000000
2.000000 2.000000 0.000000
1.420000 1.420000 0.000000
1.580000 1.420000 0.000000
1.580000 1.580000 0.000000
1.420000 1.580000 0.000000
1.358579 1.358579 0.000000
1.641421 1.358579 0.000000
1.641421 1.641421 0.000000
1.358579 1.641421 0.000000
3.000000 2.000000 0.000000
2.420000 1.420000 0.000000
2.580000 1.420000 0.000000
2.580000 1.580000 0.000000
2.420000 1.580000 0.000000
2.358579 1.358579 0.000000
2.641421 1.358579 0.000000
2.641421 1.641421 0.000000
2.358579 1.641421 0.000000
4.000000 2.000000 0.000000
3.420000 1.420000 0.000000
3.580000 1.420000 0.000000
3.580000 1.580000 0.000000
3.420000 1.580000 0.000000
3.358579 1.358579 0.000000
3.641421 1.358579 0.000000
3.641421 1.641421 0.000000
3.358579 1.641421 0.000000
1.000000 3.000000 0.000000
0.000000 3.000000 0.000000
0.420000 2.420000 0.000000
0.580000 2.420000 0.000000
0.580000 2.580000 0.000000
0.420000 2.580000 0.000000
0.358579 2.358579 0.000000
0.641421 2.358579 0.000000
0.641421 2.641421 0.000000
0.358579 2.641421 0.000000
2.000000 3.000000 0.000000
1.420000 2.420000 0.000000
1.580000 2.420000 0.000000
1.580000 2.580000 0.000000
1.420000 2.580000 0.000000
1.358579 2.358579 0.000000
1.641421 2.358579 0.000000
1.641421 2.641421 0.000000
1.358579 2.641421 0.000000
3.000000 3.000000 0.000000
2.420000 2.420000 0.000000
2.580000 2.420000 0.000000
2.580000 2.580000 0.000000
2.420000 2.580000 0.000000
2.358579 2.358579 0.000000
2.641421 2.358579 0.000000
2.641421 2.641421 0.000000
2.358579 2.641421 0.000000
4.000000 3.000000 0.000000
3.420000 2.420000 0.000000
3.580000 2.420000 0.000000
3.580000 2.580000 0.000000
3.420000 2.580000 0.000000
3.358579 2.358579 0.000000
3.641421 2.358579 0.000000
3.641421 2.641421 0.000000
3.358579 2.641421 0.000000
1.000000 4.000000 0.000000
0.000000 4.000000 0.000000
0.420000 3.420000 0.000000
0.580000 3.420000 0.000000
0.580000 3.580000 0.000000
0.420000 3.580000 0.000000
0.358579 3.358579 0.000000
0.641421 3.358579 0.000000
0.641421 3.641421 0.000000
0.358579 3.641421 0.000000
2.000000 4.000000 0.000000
1.420000 3.420000 0.000000
1.580000 3.420000 0.000000
1.580000 3.580000 0.000000
1.420000 3.580000 0.000000
1.358579 3.358579 0.000000
1.641421 3.358579 0.000000
1.641421 3.641421 0.000000
1.358579 3.641421 0.000000
3.000000 4.000000 0.000000
2.420000 3.420000 0.000000
2.580000 3.420000 0.000000
2.580000 3.580000 0.000000
2.420000 3.580000 0.000000
2.358579 3.358579 0.000000
2.641421 3.358579 0.000000
2.641421 3.641421 0.000000
2.358579 3.641421 0.000000
4.000000 4.000000 0.000000
3.420000 3.420000 0.000000
3.580000 3.420000 0.000000
3.580000 3.580000 0.000000
3.420000 3.580000 0.000000
3.358579 3.358579 0.000000
3.641421 3.358579 0.000000
3.641421 3.641421 0.000000
3.358579 3.641421 0.000000
0.500000 0.000000 0.000000
0.250000 0.000000 0.000000
0.750000 0.000000 0.000000
1.000000 0.500000 0.000000
1.000000 0.250000 0.000000
1.000000 0.750000 0.000000
0.500000 1.000000 0.000000
0.750000 1.000000 0.000000
0.250000 1.000000 0.000000
0.000000 0.500000 0.000000
0.000000 0.750000 0.000000
0.000000 0.250000 0.000000
0.500000 0.420000 0.000000
0.460000 0.420000 0.000000
0.540000 0.420000 0.000000
0.580000 0.500000 0.000000
0.580000 0.460000 0.000000
0.580000 0.540000 0.000000
0.500000 0.580000 0.000000
0.540000 0.580000 0.000000
0.460000 0.580000 0.000000
0.420000 0.500000 0.000000
0.420000 0.540000 0.000000
0.420000 0.460000 0.000000
0.500000 0.300001 0.000000
0.423464 0.315225 0.000000
0.576536 0.315225 0.000000
0.699999 0.500000 0.000000
0.684775 0.423464 0.000000
0.684775 0.576536 0.000000
0.500000 0.699999 0.000000
0.576536 0.684775 0.000000
0.423464 0.684775 0.000000
0.300001 0.500000 0.000000
0.315225 0.576536 0.000000
0.315225 0.423464 0.000000
0.389290 0.389290 0.000000
0.404645 0.404645 0.000000
0.373934 0.373934 0.000000
0.610710 0.389290 0.000000
0.595355 0.404645 0.000000
0.626066 0.373934 0.000000
0.610710 0.610710 0.000000
0.595355 0.595355 0.000000
0.626066 0.626066 0.000000
0.389290 0.610710 0.000000
0.404645 0.595355 0.000000
0.373934 0.626066 0.000000
0.179290 0.179290 0.000000
0.268934 0.268934 0.000000
0.089645 0.089645 0.000000
0.820710 0.179290 0.000000
0.731066 0.268934 0.000000
0.910355 0.089645 0.000000
0.820710 0.820710 0.000000
0.731066 0.731066 0.000000
0.910355 0.910355 0.000000
0.179290 0.820710 0.000000
0.268934 0.731066 0.000000
0.089645 0.910355 0.000000
1.500000 0.000000 0.000000
1.250000 0.000000 0.000000
1.750000 0.000000 0.000000
2.000000 0.500000 0.000000
2.000000 0.250000 0.000000
2.000000 0.750000 0.000000
1.500000 1.000000 0.000000
1.750000 1.000000 0.000000
1.250000 1.000000 0.000000
1.500000 0.420000 0.000000
1.460000 0.420000 0.000000
1.540000 0.420000 0.000000
1.580000 0.500000 0.000000
1.580000 0.460000 0.000000
1.580000 0.540000 0.000000
1.500000 0.580000 0.000000
1.540000 0.580000 0.000000
1.460000 0.580000 0.000000
1.420000 0.500000 0.000000
1.420000 0.540000 0.000000
1.420000 0.460000 0.000000
1.500000 0.300001 0.000000
1.423464 0.315225 0.000000
1.576536 0.315225 0.000000
1.699999 0.500000 0.000000
1.684775 0.423464 0.000000
1.684775 0.576536 0.000000
1.500000 0.699999 0.000000
1.576536 0.684775 0.000000
1.423464 0.684775 0.000000
1.300001 0.500000 0.000000
1.315225 0.576536 0.000000
1.315225 0.423464 0.000000
1.389290 0.389290 0.000000
1.404645 0.404645 0.000000
1.373934 0.373934 0.000000
1.610710 0.389290 0.000000
1.595355 0.404645 0.000000
1.626066 0.373934 0.000000
1.610710 0.610710 0.000000
1.595355 0.595355 0.000000
1.626066 0.626066 0.000000
1.389290 0.610710 0.000000
1.404645 0.595355 0.000000
1.373934 0.626066 0.000000
1.179290 0.179290 0.000000
1.268934 0.268934 0.000000
1.089645 0.089645 0.000000
1.820710 0.179290 0.000000
1.731066 0.268934 0.000000
1.910355 0.089645 0.000000
1.820710 0.820710 0.000000
1.731066 0.731066 0.000000
1.910355 0.910355 0.000000
1.179290 0.820710 0.000000
1.268934 0.731066 0.000000
1.089645 0.910355 0.000000
2.500000 0.000000 0.000000
2.250000 0.000000 0.000000
2.750000 0.000000 0.000000
3.000000 0.500000 0.000000
3.000000 0.250000 0.000000
3.000000 0.750000 0.000000
2.500000 1.000000 0.000000
2.750000 1.000000 0.000000
2.250000 1.000000 0.000000
2.500000 0.420000 0.000000
2.460000 0.420000 0.000000
2.540000 0.420000 0.000000
2.580000 0.500000 0.000000
2.580000 0.460000 0.000000
2.580000 0.540000 0.000000
2.500000 0.580000 0.000000
2.540000 0.580000 0.000000
2.460000 0.580000 0.000000
2.420000 0.500000 0.000000
2.420000 0.540000 0.000000
2.420000 0.460000 0.000000
2.500000 0.300001 0.000000
2.423464 0.315225 0.000000
2.576536 0.315225 0.000000
2.699999 0.500000 0.000000
2.684775 0.423464 0.000000
2.684775 0.576536 0.000000
2.500000 0.699999 0.000000
2.576536 0.684775 0.000000
2.423464 0.684775 0.000000
2.300001 0.500000 0.000000
2.315225 0.576536 0.000000
2.315225 0.423464 0.000000
2.389289 0.389289 0.000000
2.404645 0.404645 0.000000
2.373934 0.373934 0.000000
2.610711 0.389289 0.000000
2.595355 0.404645 0.000000
2.626066 0.373934 0.000000
2.610711 0.610711 0.000000
2.595355 0.595355 0.000000
2.626066 0.626066 0.000000
2.389289 0.610711 0.000000
2.404645 0.595355 0.000000
2.373934 0.626066 0.000000
2.179290 0.179290 0.000000
2.268934 0.268934 0.000000
2.089645 0.089645 0.000000
2.820710 0.179290 0.000000
2.731066 0.268934 0.000000
2.910355 0.089645 0.000000
2.820710 0.820710 0.000000
2.731066 0.731066 0.000000
2.910355 0.910355 0.000000
2.179290 0.820710 0.000000
2.268934 0.731066 0.000000
2.089645 0.910355 0.000000
3.500000 0.000000 0.000000
3.250000 0.000000 0.000000
3.750000 0.000000 0.000000
4.000000 0.500000 0.000000
4.000000 0.250000 0.000000
4.000000 0.750000 0.000000
3.500000 1.000000 0.000000
3.750000 1.000000 0.000000
3.250000 1.000000 0.000000
3.500000 0.420000 0.000000
3.460000 0.420000 0.000000
3.540000 0.420000 0.000000
3.580000 0.500000 0.000000
3.580000 0.460000 0.000000
3.580000 0.540000 0.000000
3.500000 0.580000 0.000000
3.540000 0.580000 0.000000
3.460000 0.580000 0.000000
3.420000 0.500000 0.000000
3.420000 0.540000 0.000000
3.420000 0.460000 0.000000
3.500000 0.300001 0.000000
3.423464 0.315225 0.000000
3.576536 0.315225 0.000000
3.699999 0.500000 0.000000
3.684775 0.423464 0.000000
3.684775 0.576536 0.000000
3.500000 0.699999 0.000000
3.576536 0.684775 0.000000
3.423464 0.684775 0.000000
3.300001 0.500000 0.000000
3.315225 0.576536 0.000000
3.315225 0.423464 0.000000
3.389289 0.389289 0.000000
3.404645 0.404645 0.000000
3.373934 0.373934 0.000000
3.610711 0.389289 0.000000
3.595355 0.404645 0.000000
3.626066 0.373934 0.000000
3.610711 0.610711 0.000000
[...]
POINT_DATA 1761
VECTORS sol double
+0.000000 +0.000000 0
+0.000000 +0.000000 0
+0.019316 +0.193273 0
+0.000000 +0.000000 0
+0.007961 +0.079658 0
+0.010217 +0.101217 0
+0.012339 +0.123461 0
+0.009543 +0.096495 0
+0.005835 +0.058385 0
+0.009250 +0.090926 0
+0.013187 +0.131942 0
+0.008162 +0.083297 0
+0.000000 +0.000000 0
+0.033235 +0.273868 0
+0.023915 +0.214093 0
+0.025365 +0.223070 0
+0.030773 +0.271439 0
+0.028934 +0.260208 0
+0.019290 +0.173658 0
+0.021468 +0.187206 0
+0.030851 +0.270259 0
+0.027513 +0.249995 0
+0.000000 +0.000000 0
+0.027685 +0.194035 0
+0.028814 +0.223385 0
+0.028094 +0.214474 0
+0.034280 +0.260694 0
+0.035156 +0.271838 0
+0.023996 +0.187437 0
+0.022898 +0.173987 0
+0.033226 +0.250515 0
+0.034787 +0.270617 0
+0.000000 +0.000000 0
+0.000000 +0.000000 0
+0.014396 +0.101598 0
+0.011411 +0.079972 0
+0.013925 +0.096894 0
+0.017685 +0.123948 0
+0.012858 +0.091254 0
+0.008363 +0.058616 0
+0.012098 +0.083655 0
+0.018900 +0.132462 0
-0.005918 -0.000539 0
+0.000000 +0.000000 0
+0.007104 +0.096273 0
+0.009384 +0.123192 0
+0.006437 +0.100873 0
+0.004863 +0.079376 0
+0.006374 +0.083134 0
+0.010636 +0.131710 0
+0.005211 +0.090558 0
+0.003052 +0.058132 0
-0.000000 -0.000000 0
+0.025979 +0.259938 0
+0.028334 +0.271217 0
+0.022266 +0.222788 0
+0.020135 +0.213749 0
+0.024962 +0.249763 0
+0.029063 +0.270096 0
+0.018685 +0.186953 0
+0.015251 +0.173290 0
+0.005918 +0.000539 0
+0.037595 +0.272060 0
+0.037234 +0.260963 0
+0.031874 +0.214818 0
+0.031913 +0.223667 0
+0.036575 +0.270780 0
+0.035777 +0.250747 0
+0.026938 +0.174355 0
+0.026780 +0.187690 0
+0.000000 +0.000000 0
+0.020640 +0.124217 0
+0.016364 +0.097116 0
+0.014509 +0.080254 0
+0.018176 +0.101942 0
+0.021451 +0.132695 0
+0.013886 +0.083818 0
+0.011147 +0.058869 0
+0.016898 +0.091622 0
-0.027685 -0.194035 0
+0.000000 +0.000000 0
-0.014509 -0.080254 0
-0.018176 -0.101942 0
-0.020640 -0.124217 0
-0.016364 -0.097116 0
-0.011147 -0.058869 0
-0.016898 -0.091622 0
-0.021451 -0.132695 0
-0.013886 -0.083818 0
-0.033235 -0.273868 0
-0.031874 -0.214818 0
-0.031913 -0.223667 0
-0.037595 -0.272060 0
-0.037234 -0.260963 0
-0.026938 -0.174355 0
-0.026780 -0.187690 0
-0.036575 -0.270780 0
-0.035777 -0.250747 0
-0.019316 -0.193273 0
-0.022266 -0.222788 0
-0.020135 -0.213749 0
-0.025979 -0.259938 0
-0.028334 -0.271217 0
-0.018685 -0.186953 0
-0.015251 -0.173290 0
-0.024962 -0.249763 0
-0.029063 -0.270096 0
+0.000000 +0.000000 0
-0.006437 -0.100873 0
-0.004863 -0.079376 0
-0.007104 -0.096273 0
-0.009384 -0.123192 0
-0.005211 -0.090558 0
-0.003052 -0.058132 0
-0.006374 -0.083134 0
-0.010636 -0.131710 0
+0.000000 +0.000000 0
+0.000000 +0.000000 0
-0.013925 -0.096894 0
-0.017685 -0.123948 0
-0.014396 -0.101598 0
-0.011411 -0.079972 0
-0.012098 -0.083655 0
-0.018900 -0.132462 0
-0.012858 -0.091254 0
-0.008363 -0.058616 0
+0.000000 +0.000000 0
-0.034280 -0.260694 0
-0.035156 -0.271838 0
-0.028814 -0.223385 0
-0.028094 -0.214474 0
-0.033226 -0.250515 0
-0.034787 -0.270617 0
-0.023996 -0.187437 0
-0.022898 -0.173987 0
+0.000000 +0.000000 0
-0.030773 -0.271439 0
-0.028934 -0.260208 0
-0.023915 -0.214093 0
-0.025365 -0.223070 0
-0.030851 -0.270259 0
-0.027513 -0.249995 0
-0.019290 -0.173658 0
-0.021468 -0.187206 0
+0.000000 +0.000000 0
-0.012339 -0.123461 0
-0.009543 -0.096495 0
-0.007961 -0.079658 0
-0.010217 -0.101217 0
-0.013187 -0.131942 0
-0.008162 -0.083297 0
-0.005835 -0.058385 0
-0.009250 -0.090926 0
+0.000000 +0.000000 0
+0.000000 +0.000000 0
+0.000000 +0.000000 0
+0.015801 +0.149657 0
+0.008875 +0.083309 0
+0.019066 +0.184177 0
+0.010166 +0.110159 0
+0.014666 +0.153339 0
+0.005213 +0.057644 0
+0.000000 +0.000000 0
+0.000000 +0.000000 0
+0.000000 +0.000000 0
+0.009257 +0.092214 0
+0.008647 +0.086337 0
+0.009783 +0.097193 0
+0.011555 +0.114972 0
+0.010949 +0.108700 0
+0.012019 +0.119905 0
+0.011128 +0.111982 0
+0.011784 +0.118259 0
+0.010377 +0.104689 0
+0.008982 +0.090288 0
+0.009323 +0.093975 0
+0.008525 +0.085483 0
+0.006669 +0.066094 0
+0.006109 +0.060837 0
+0.007740 +0.076363 0
+0.012445 +0.122487 0
+0.010957 +0.107595 0
+0.013249 +0.131321 0
+0.011089 +0.112988 0
+0.012418 +0.125495 0
+0.009599 +0.098076 0
+0.006249 +0.063151 0
+0.007021 +0.071327 0
+0.005920 +0.059515 0
+0.006918 +0.069220 0
+0.007442 +0.074462 0
+0.006372 +0.063754 0
+0.009811 +0.096831 0
+0.010035 +0.099227 0
+0.009560 +0.094159 0
+0.012838 +0.128457 0
+0.012604 +0.126112 0
+0.013036 +0.130434 0
+0.008918 +0.090569 0
+0.009247 +0.093707 0
+0.008560 +0.087147 0
+0.001428 +0.014293 0
+0.003288 +0.032899 0
+0.000361 +0.003607 0
+0.005471 +0.052418 0
+0.007437 +0.072224 0
+0.003014 +0.028538 0
+0.016132 +0.161411 0
+0.014480 +0.144884 0
+0.017784 +0.177944 0
+0.003921 +0.041555 0
+0.005978 +0.062000 0
+0.001933 +0.020958 0
+0.000000 +0.000000 0
+0.000000 +0.000000 0
+0.000000 +0.000000 0
+0.025722 +0.211954 0
+0.014317 +0.117977 0
+0.031660 +0.260893 0
+0.029122 +0.266364 0
+0.031591 +0.275012 0
+0.024587 +0.235092 0
+0.025114 +0.222876 0
+0.024629 +0.219530 0
+0.025359 +0.224050 0
+0.028752 +0.253195 0
+0.027216 +0.239499 0
+0.029942 +0.263877 0
+0.030385 +0.270670 0
+0.030713 +0.272267 0
+0.029788 +0.266615 0
+0.027081 +0.242915 0
+0.028180 +0.253077 0
+0.025649 +0.229831 0
+0.018033 +0.159742 0
+0.018201 +0.162566 0
+0.019238 +0.169029 0
+0.027308 +0.236688 0
+0.024418 +0.211950 0
+0.029601 +0.257393 0
+0.030522 +0.273117 0
+0.031181 +0.275920 0
+0.029286 +0.264496 0
+0.023305 +0.211980 0
+0.025516 +0.232405 0
+0.021191 +0.191931 0
+0.021714 +0.194916 0
+0.022840 +0.204741 0
+0.020523 +0.184499 0
+0.023567 +0.206412 0
+0.024503 +0.215053 0
+0.022561 +0.197158 0
+0.031007 +0.272592 0
+0.030934 +0.272409 0
+0.030989 +0.271973 0
+0.028415 +0.256810 0
+0.028720 +0.258911 0
+0.028024 +0.253942 0
+0.007929 +0.072671 0
+0.013094 +0.118842 0
+0.003634 +0.033650 0
+0.010438 +0.088539 0
+0.015704 +0.135212 0
+0.005265 +0.044025 0
+0.031677 +0.270275 0
+0.030892 +0.267301 0
+0.032532 +0.273105 0
+0.023281 +0.220326 0
+0.025145 +0.232766 0
+0.021391 +0.207663 0
+0.000000 +0.000000 0
+0.000000 +0.000000 0
+0.000000 +0.000000 0
+0.020574 +0.150091 0
+0.011373 +0.083536 0
+0.025708 +0.184782 0
+0.035599 +0.266953 0
+0.032560 +0.235818 0
+0.035196 +0.275340 0
+0.029023 +0.223232 0
+0.029061 +0.224388 0
+0.028698 +0.219900 0
+0.031930 +0.243356 0
+0.030183 +0.230244 0
+0.033301 +0.253543 0
+0.035363 +0.271123 0
+0.034979 +0.267088 0
+0.035420 +0.272695 0
+0.032745 +0.253558 0
+0.034150 +0.264260 0
+0.030954 +0.239839 0
+0.020768 +0.159991 0
+0.021815 +0.169264 0
+0.021290 +0.162847 0
+0.028198 +0.212425 0
+0.025439 +0.192318 0
+0.030951 +0.232900 0
+0.035825 +0.273600 0
+0.034972 +0.265014 0
+0.035839 +0.276344 0
+0.030170 +0.236949 0
+0.032907 +0.257694 0
+0.027053 +0.212190 0
+0.026564 +0.206685 0
+0.027727 +0.215346 0
+0.025321 +0.197409 0
+0.025637 +0.195273 0
+0.026898 +0.205110 0
+0.024298 +0.184842 0
+0.033977 +0.257317 0
+0.034180 +0.259408 0
+0.033672 +0.254456 0
+0.035199 +0.272974 0
+0.035230 +0.272800 0
+0.035066 +0.272344 0
+0.011057 +0.088595 0
+0.017129 +0.135342 0
+0.005422 +0.044039 0
+0.009729 +0.072835 0
+0.015780 +0.119087 0
+0.004543 +0.033732 0
+0.030271 +0.220962 0
+0.031419 +0.233338 0
+0.029096 +0.208364 0
+0.033946 +0.270482 0
+0.034019 +0.267586 0
+0.033767 +0.273218 0
+0.000000 +0.000000 0
+0.000000 +0.000000 0
+0.000000 +0.000000 0
+0.000000 +0.000000 0
+0.000000 +0.000000 0
+0.000000 +0.000000 0
+0.016642 +0.110748 0
+0.008818 +0.057973 0
+0.022639 +0.154065 0
+0.013167 +0.092570 0
+0.013852 +0.097564 0
+0.012349 +0.086674 0
+0.012975 +0.090651 0
+0.012263 +0.085823 0
+0.013532 +0.094358 0
+0.016106 +0.112436 0
+0.015084 +0.105118 0
+0.016976 +0.118731 0
+0.016404 +0.115413 0
+0.017140 +0.120372 0
+0.015483 +0.109112 0
+0.009403 +0.066343 0
+0.010828 +0.076644 0
+0.008686 +0.061072 0
+0.009110 +0.063412 0
+0.008554 +0.059755 0
+0.010327 +0.071628 0
+0.016392 +0.113470 0
+0.014257 +0.098501 0
+0.018104 +0.126013 0
+0.017338 +0.122932 0
+0.018684 +0.131816 0
+0.015204 +0.107981 0
+0.013734 +0.097188 0
+0.014093 +0.099597 0
+0.013334 +0.094502 0
+0.009915 +0.069493 0
+0.010666 +0.074756 0
+0.009132 +0.064006 0
+0.013110 +0.090951 0
+0.013544 +0.094098 0
+0.012636 +0.087519 0
+0.018401 +0.128963 0
+0.018065 +0.126610 0
+0.018684 +0.130949 0
+0.007271 +0.052581 0
+0.010122 +0.072468 0
+0.003922 +0.028621 0
+0.002047 +0.014349 0
+0.004713 +0.033029 0
+0.000517 +0.003622 0
+0.006190 +0.041762 0
+0.009104 +0.062284 0
+0.003168 +0.021070 0
+0.023121 +0.162048 0
+0.020754 +0.145456 0
+0.025489 +0.178646 0
+0.012426 +0.149350 0
+0.017300 +0.184016 0
+0.004178 +0.082881 0
-0.004580 -0.000417 0
-0.005637 -0.000513 0
-0.002549 -0.000232 0
+0.000000 +0.000000 0
+0.000000 +0.000000 0
+0.000000 +0.000000 0
+0.008363 +0.111731 0
+0.007760 +0.104451 0
+0.008906 +0.117997 0
+0.008126 +0.114660 0
+0.008813 +0.119613 0
+0.007329 +0.108370 0
+0.005737 +0.091893 0
+0.006111 +0.096859 0
+0.005319 +0.086034 0
+0.006159 +0.090030 0
+0.005550 +0.085212 0
+0.006680 +0.093734 0
+0.009156 +0.112811 0
+0.007776 +0.097911 0
+0.010234 +0.125296 0
+0.008985 +0.122172 0
+0.010246 +0.131048 0
+0.007114 +0.107245 0
+0.002919 +0.065753 0
+0.003719 +0.075997 0
+0.002815 +0.060537 0
+0.004225 +0.062967 0
+0.003582 +0.059302 0
+0.005158 +0.071157 0
+0.006799 +0.090376 0
+0.006968 +0.093500 0
+0.006608 +0.086970 0
+0.010065 +0.128204 0
+0.009735 +0.125851 0
+0.010367 +0.130191 0
+0.005878 +0.096473 0
+0.006174 +0.098876 0
+0.005567 +0.093795 0
+0.003954 +0.068950 0
+0.004404 +0.074186 0
+0.003489 +0.063492 0
+0.003483 +0.041516 0
+0.004971 +0.061908 0
+0.001822 +0.020948 0
+0.014859 +0.161295 0
+0.012581 +0.144712 0
+0.017142 +0.177886 0
+0.000529 +0.051968 0
+0.003001 +0.071820 0
-0.002434 +0.028042 0
-0.000176 +0.014147 0
+0.001077 +0.032698 0
-0.000513 +0.003528 0
+0.025722 +0.211954 0
+0.031660 +0.260893 0
+0.014317 +0.117977 0
-0.004580 -0.000417 0
-0.002549 -0.000232 0
-0.005637 -0.000513 0
+0.027621 +0.270418 0
+0.026910 +0.266353 0
+0.028096 +0.272028 0
+0.025929 +0.252937 0
+0.027298 +0.263636 0
+0.024240 +0.239228 0
+0.021594 +0.222555 0
+0.022031 +0.223747 0
+0.020957 +0.219196 0
+0.023652 +0.242603 0
+0.022028 +0.229501 0
+0.024974 +0.252785 0
+0.028588 +0.272941 0
+0.027102 +0.264297 0
+0.029358 +0.275754 0
+0.025285 +0.236504 0
+0.027738 +0.257223 0
+0.022081 +0.211737 0
+0.014283 +0.159401 0
+0.015944 +0.168729 0
+0.014180 +0.162200 0
+0.019845 +0.211665 0
+0.017349 +0.191581 0
+0.022513 +0.232132 0
+0.025641 +0.256558 0
+0.025850 +0.258650 0
+0.025355 +0.253699 0
+0.028888 +0.272399 0
+0.028654 +0.272201 0
+0.029037 +0.271795 0
+0.020603 +0.206142 0
+0.021465 +0.214776 0
+0.019678 +0.196895 0
+0.017781 +0.194558 0
+0.018978 +0.204389 0
+0.016530 +0.184135 0
+0.022008 +0.220210 0
+0.023246 +0.232594 0
+0.020749 +0.207604 0
+0.031240 +0.270236 0
+0.029885 +0.267209 0
+0.032421 +0.273095 0
+0.008834 +0.088392 0
+0.013493 +0.135011 0
+0.004392 +0.043945 0
+0.002987 +0.072221 0
+0.008658 +0.118438 0
-0.001814 +0.033154 0
+0.023950 +0.150399 0
+0.027475 +0.184943 0
+0.016070 +0.083964 0
+0.004580 +0.000417 0
+0.005637 +0.000513 0
+0.002549 +0.000232 0
+0.038128 +0.271375 0
+0.038037 +0.272934 0
+0.037857 +0.267350 0
+0.035359 +0.243669 0
+0.036506 +0.253835 0
+0.033804 +0.230574 0
+0.032543 +0.223552 0
+0.032369 +0.220235 0
+0.032389 +0.224691 0
+0.035568 +0.253815 0
+0.033930 +0.240110 0
+0.036793 +0.264500 0
+0.037758 +0.273776 0
+0.037661 +0.276510 0
+0.037156 +0.265213 0
+0.031658 +0.212741 0
+0.033954 +0.233174 0
+0.029282 +0.192668 0
+0.024518 +0.160333 0
+0.025310 +0.163213 0
+0.025109 +0.169564 0
+0.032193 +0.237133 0
+0.029390 +0.212403 0
+0.034770 +0.257863 0
+0.037319 +0.273167 0
+0.037510 +0.273007 0
+0.037018 +0.272522 0
+0.036750 +0.257569 0
+0.037050 +0.259669 0
+0.036341 +0.254699 0
+0.029570 +0.195631 0
+0.030759 +0.205462 0
+0.028291 +0.185206 0
+0.029529 +0.206955 0
+0.030765 +0.215623 0
+0.028204 +0.197672 0
+0.034384 +0.270522 0
+0.035026 +0.267677 0
+0.033877 +0.273228 0
+0.031544 +0.221078 0
+0.033318 +0.233511 0
+0.029738 +0.208423 0
+0.014671 +0.073285 0
+0.020216 +0.119491 0
+0.009991 +0.034228 0
+0.012662 +0.088741 0
+0.019339 +0.135543 0
+0.006295 +0.044118 0
+0.000000 +0.000000 0
+0.000000 +0.000000 0
+0.000000 +0.000000 0
+0.004580 +0.000417 0
+0.002549 +0.000232 0
+0.005637 +0.000513 0
+0.018871 +0.112687 0
+0.019853 +0.118993 0
+0.017701 +0.105356 0
+0.015798 +0.090908 0
+0.016175 +0.094599 0
+0.015239 +0.086094 0
+0.016687 +0.092890 0
+0.015676 +0.086977 0
+0.017523 +0.097898 0
+0.019833 +0.115726 0
+0.019104 +0.109442 0
+0.020345 +0.120664 0
+0.018326 +0.113646 0
+0.020288 +0.126212 0
+0.016079 +0.098667 0
+0.011134 +0.063596 0
+0.012190 +0.071797 0
+0.010892 +0.059968 0
+0.013153 +0.066685 0
+0.011979 +0.061372 0
+0.014849 +0.077010 0
+0.020798 +0.123247 0
+0.019047 +0.108331 0
+0.021687 +0.132090 0
+0.021174 +0.129216 0
+0.020934 +0.126871 0
+0.021353 +0.131192 0
+0.015230 +0.091144 0
+0.015823 +0.094306 0
+0.014588 +0.087696 0
+0.012880 +0.069763 0
+0.013704 +0.075033 0
+0.012015 +0.064268 0
+0.017667 +0.097546 0
+0.017954 +0.099949 0
+0.017328 +0.094866 0
+0.024394 +0.162164 0
+0.022653 +0.145629 0
+0.026132 +0.178704 0
+0.006627 +0.041802 0
+0.010112 +0.062376 0
+0.003278 +0.021080 0
+0.003652 +0.014495 0
+0.006923 +0.033230 0
+0.001390 +0.003701 0
+0.012213 +0.053031 0
+0.014558 +0.072872 0
+0.009371 +0.029117 0
-0.023950 -0.150399 0
-0.016070 -0.083964 0
-0.027475 -0.184943 0
-0.016642 -0.110748 0
-0.022639 -0.154065 0
-0.008818 -0.057973 0
+0.000000 +0.000000 0
+0.000000 +0.000000 0
+0.000000 +0.000000 0
-0.016687 -0.092890 0
-0.015676 -0.086977 0
-0.017523 -0.097898 0
-0.019833 -0.115726 0
-0.019104 -0.109442 0
-0.020345 -0.120664 0
-0.018871 -0.112687 0
-0.019853 -0.118993 0
-0.017701 -0.105356 0
-0.015798 -0.090908 0
-0.016175 -0.094599 0
-0.015239 -0.086094 0
-0.013153 -0.066685 0
-0.011979 -0.061372 0
-0.014849 -0.077010 0
-0.020798 -0.123247 0
-0.019047 -0.108331 0
-0.021687 -0.132090 0
-0.018326 -0.113646 0
-0.020288 -0.126212 0
-0.016079 -0.098667 0
-0.011134 -0.063596 0
-0.012190 -0.071797 0
-0.010892 -0.059968 0
-0.012880 -0.069763 0
-0.013704 -0.075033 0
-0.012015 -0.064268 0
-0.017667 -0.097546 0
-0.017954 -0.099949 0
-0.017328 -0.094866 0
-0.021174 -0.129216 0
-0.020934 -0.126871 0
-0.021353 -0.131192 0
-0.015230 -0.091144 0
-0.015823 -0.094306 0
-0.014588 -0.087696 0
-0.003652 -0.014495 0
-0.006923 -0.033230 0
-0.001390 -0.003701 0
-0.012213 -0.053031 0
-0.014558 -0.072872 0
-0.009371 -0.029117 0
-0.024394 -0.162164 0
-0.022653 -0.145629 0
-0.026132 -0.178704 0
-0.006627 -0.041802 0
-0.010112 -0.062376 0
-0.003278 -0.021080 0
-0.025722 -0.211954 0
-0.014317 -0.117977 0
-0.031660 -0.260893 0
-0.035599 -0.266953 0
-0.035196 -0.275340 0
-0.032560 -0.235818 0
-0.032543 -0.223552 0
-0.032369 -0.220235 0
-0.032389 -0.224691 0
-0.035568 -0.253815 0
-0.033930 -0.240110 0
-0.036793 -0.264500 0
-0.038128 -0.271375 0
-0.038037 -0.272934 0
-0.037857 -0.267350 0
-0.035359 -0.243669 0
-0.036506 -0.253835 0
-0.033804 -0.230574 0
-0.024518 -0.160333 0
-0.025310 -0.163213 0
-0.025109 -0.169564 0
-0.032193 -0.237133 0
-0.029390 -0.212403 0
-0.034770 -0.257863 0
-0.037758 -0.273776 0
-0.037661 -0.276510 0
-0.037156 -0.265213 0
-0.031658 -0.212741 0
-0.033954 -0.233174 0
-0.029282 -0.192668 0
-0.029570 -0.195631 0
-0.030759 -0.205462 0
-0.028291 -0.185206 0
-0.029529 -0.206955 0
-0.030765 -0.215623 0
-0.028204 -0.197672 0
-0.037319 -0.273167 0
-0.037510 -0.273007 0
-0.037018 -0.272522 0
-0.036750 -0.257569 0
-0.037050 -0.259669 0
-0.036341 -0.254699 0
-0.014671 -0.073285 0
-0.020216 -0.119491 0
-0.009991 -0.034228 0
-0.012662 -0.088741 0
-0.019339 -0.135543 0
-0.006295 -0.044118 0
-0.034384 -0.270522 0
-0.035026 -0.267677 0
-0.033877 -0.273228 0
-0.031544 -0.221078 0
-0.033318 -0.233511 0
-0.029738 -0.208423 0
-0.012426 -0.149350 0
-0.004178 -0.082881 0
-0.017300 -0.184016 0
-0.029122 -0.266364 0
-0.024587 -0.235092 0
-0.031591 -0.275012 0
-0.021594 -0.222555 0
-0.022031 -0.223747 0
-0.020957 -0.219196 0
-0.023652 -0.242603 0
-0.022028 -0.229501 0
-0.024974 -0.252785 0
-0.027621 -0.270418 0
-0.026910 -0.266353 0
-0.028096 -0.272028 0
-0.025929 -0.252937 0
-0.027298 -0.263636 0
-0.024240 -0.239228 0
-0.014283 -0.159401 0
-0.015944 -0.168729 0
-0.014180 -0.162200 0
-0.019845 -0.211665 0
-0.017349 -0.191581 0
-0.022513 -0.232132 0
-0.028588 -0.272941 0
-0.027102 -0.264297 0
-0.029358 -0.275754 0
-0.025285 -0.236504 0
-0.027738 -0.257223 0
-0.022081 -0.211737 0
-0.020603 -0.206142 0
-0.021465 -0.214776 0
-0.019678 -0.196895 0
-0.017781 -0.194558 0
-0.018978 -0.204389 0
-0.016530 -0.184135 0
-0.025641 -0.256558 0
-0.025850 -0.258650 0
-0.025355 -0.253699 0
-0.028888 -0.272399 0
-0.028654 -0.272201 0
-0.029037 -0.271795 0
-0.008834 -0.088392 0
-0.013493 -0.135011 0
-0.004392 -0.043945 0
-0.002987 -0.072221 0
-0.008658 -0.118438 0
+0.001814 -0.033154 0
-0.022008 -0.220210 0
-0.023246 -0.232594 0
-0.020749 -0.207604 0
-0.031240 -0.270236 0
-0.029885 -0.267209 0
-0.032421 -0.273095 0
+0.000000 +0.000000 0
+0.000000 +0.000000 0
+0.000000 +0.000000 0
-0.010166 -0.110159 0
-0.005213 -0.057644 0
-0.014666 -0.153339 0
-0.005737 -0.091893 0
-0.006111 -0.096859 0
-0.005319 -0.086034 0
-0.006159 -0.090030 0
-0.005550 -0.085212 0
-0.006680 -0.093734 0
-0.008363 -0.111731 0
-0.007760 -0.104451 0
-0.008906 -0.117997 0
-0.008126 -0.114660 0
-0.008813 -0.119613 0
-0.007329 -0.108370 0
-0.002919 -0.065753 0
-0.003719 -0.075997 0
-0.002815 -0.060537 0
-0.004225 -0.062967 0
-0.003582 -0.059302 0
-0.005158 -0.071157 0
-0.009156 -0.112811 0
-0.007776 -0.097911 0
-0.010234 -0.125296 0
-0.008985 -0.122172 0
-0.010246 -0.131048 0
-0.007114 -0.107245 0
-0.005878 -0.096473 0
-0.006174 -0.098876 0
-0.005567 -0.093795 0
-0.003954 -0.068950 0
-0.004404 -0.074186 0
-0.003489 -0.063492 0
-0.006799 -0.090376 0
-0.006968 -0.093500 0
-0.006608 -0.086970 0
-0.010065 -0.128204 0
-0.009735 -0.125851 0
-0.010367 -0.130191 0
-0.000529 -0.051968 0
-0.003001 -0.071820 0
+0.002434 -0.028042 0
+0.000176 -0.014147 0
-0.001077 -0.032698 0
+0.000513 -0.003528 0
-0.003483 -0.041516 0
-0.004971 -0.061908 0
-0.001822 -0.020948 0
-0.014859 -0.161295 0
-0.012581 -0.144712 0
-0.017142 -0.177886 0
-0.020574 -0.150091 0
-0.025708 -0.184782 0
-0.011373 -0.083536 0
+0.000000 +0.000000 0
+0.000000 +0.000000 0
+0.000000 +0.000000 0
+0.000000 +0.000000 0
+0.000000 +0.000000 0
+0.000000 +0.000000 0
-0.016106 -0.112436 0
-0.015084 -0.105118 0
-0.016976 -0.118731 0
-0.016404 -0.115413 0
-0.017140 -0.120372 0
-0.015483 -0.109112 0
-0.013167 -0.092570 0
-0.013852 -0.097564 0
-0.012349 -0.086674 0
-0.012975 -0.090651 0
-0.012263 -0.085823 0
-0.013532 -0.094358 0
-0.016392 -0.113470 0
-0.014257 -0.098501 0
-0.018104 -0.126013 0
-0.017338 -0.122932 0
-0.018684 -0.131816 0
-0.015204 -0.107981 0
-0.009403 -0.066343 0
-0.010828 -0.076644 0
-0.008686 -0.061072 0
-0.009110 -0.063412 0
-0.008554 -0.059755 0
-0.010327 -0.071628 0
-0.013110 -0.090951 0
-0.013544 -0.094098 0
-0.012636 -0.087519 0
-0.018401 -0.128963 0
-0.018065 -0.126610 0
-0.018684 -0.130949 0
-0.013734 -0.097188 0
-0.014093 -0.099597 0
-0.013334 -0.094502 0
-0.009915 -0.069493 0
-0.010666 -0.074756 0
-0.009132 -0.064006 0
-0.006190 -0.041762 0
-0.009104 -0.062284 0
-0.003168 -0.021070 0
-0.023121 -0.162048 0
-0.020754 -0.145456 0
-0.025489 -0.178646 0
-0.007271 -0.052581 0
-0.010122 -0.072468 0
-0.003922 -0.028621 0
-0.002047 -0.014349 0
-0.004713 -0.033029 0
-0.000517 -0.003622 0
-0.025722 -0.211954 0
-0.031660 -0.260893 0
-0.014317 -0.117977 0
+0.000000 +0.000000 0
+0.000000 +0.000000 0
+0.000000 +0.000000 0
-0.035363 -0.271123 0
-0.034979 -0.267088 0
-0.035420 -0.272695 0
-0.032745 -0.253558 0
-0.034150 -0.264260 0
-0.030954 -0.239839 0
-0.029023 -0.223232 0
-0.029061 -0.224388 0
-0.028698 -0.219900 0
-0.031930 -0.243356 0
-0.030183 -0.230244 0
-0.033301 -0.253543 0
-0.035825 -0.273600 0
-0.034972 -0.265014 0
-0.035839 -0.276344 0
-0.030170 -0.236949 0
-0.032907 -0.257694 0
-0.027053 -0.212190 0
-0.020768 -0.159991 0
-0.021815 -0.169264 0
-0.021290 -0.162847 0
-0.028198 -0.212425 0