# vtk DataFile Version 2.0
MyTitle
ASCII
DATASET UNSTRUCTURED_GRID
POINTS 1761 double
0.000000 0.000000 0.000000
1.000000 0.000000 0.000000
1.000000 1.000000 0.000000
0.000000 1.000000 0.000000
0.420000 0.420000 0.000000
0.580000 0.420000 0.000000
0.580000 0.580000 0.000000
0.420000 0.580000 0.000000
0.358579 0.358579 0.000000
0.641421 0.358579 0.000000
0.641421 0.641421 0.000000
0.358579 0.641421 0.000000
2.000000 0.000000 0.000000
2.000000 1.000000 0.000000
1.420000 0.420000 0.000000
1.580000 0.420000 0.000000
1.580000 0.580000 0.000000
1.420000 0.580000 0.000000
1.358579 0.358579 0.000000
1.641421 0.358579 0.000000
1.641421 0.641421 0.000000
1.358579 0.641421 0.000000
3.000000 0.000000 0.000000
3.000000 1.000000 0.000000
2.420000 0.420000 0.000000
2.580000 0.420000 0.000000
2.580000 0.580000 0.000000
2.420000 0.580000 0.000000
2.358579 0.358579 0.000000
2.641421 0.358579 0.000000
2.641421 0.641421 0.000000
2.358579 0.641421 0.000000
4.000000 0.000000 0.000000
4.000000 1.000000 0.000000
3.420000 0.420000 0.000000
3.580000 0.420000 0.000000
3.580000 0.580000 0.000000
3.420000 0.580000 0.000000
3.358579 0.358579 0.000000
3.641421 0.358579 0.000000
3.641421 0.641421 0.000000
3.358579 0.641421 0.000000
1.000000 2.000000 0.000000
0.000000 2.000000 0.000000
0.420000 1.420000 0.000000
0.580000 1.420000 0.000000
0.580000 1.580000 0.000000
0.420000 1.580000 0.000000
0.358579 1.358579 0.000000
0.641421 1.358579 0.000000
0.641421 1.641421 0.000000
0.358579 1.641421 0.000000
2.000000 2.000000 0.000000
1.420000 1.420000 0.000000
1.580000 1.420000 0.000000
1.580000 1.580000 0.000000
1.420000 1.580000 0.000000
1.358579 1.358579 0.000000
1.641421 1.358579 0.000000
1.641421 1.641421 0.000000
1.358579 1.641421 0.000000
3.000000 2.000000 0.000000
2.420000 1.420000 0.000000
2.580000 1.420000 0.000000
2.580000 1.580000 0.000000
2.420000 1.580000 0.000000
2.358579 1.358579 0.000000
2.641421 1.358579 0.000000
2.641421 1.641421 0.000000
2.358579 1.641421 0.000000
4.000000 2.000000 0.000000
3.420000 1.420000 0.000000
3.580000 1.420000 0.000000
3.580000 1.580000 0.000000
3.420000 1.580000 0.000000
3.358579 1.358579 0.000000
3.641421 1.358579 0.000000
3.641421 1.641421 0.000000
3.358579 1.641421 0.000000
1.000000 3.000000 0.000000
0.000000 3.000000 0.000000
0.420000 2.420000 0.000000
0.580000 2.420000 0.000000
0.580000 2.580000 0.000000
0.420000 2.580000 0.000000
0.358579 2.358579 0.000000
0.641421 2.358579 0.000000
0.641421 2.641421 0.000000
0.358579 2.641421 0.000000
2.000000 3.000000 0.000000
1.420000 2.420000 0.000000
1.580000 2.420000 0.000000
1.580000 2.580000 0.000000
1.420000 2.580000 0.000000
1.358579 2.358579 0.000000
1.641421 2.358579 0.000000
1.641421 2.641421 0.000000
1.358579 2.641421 0.000000
3.000000 3.000000 0.000000
2.420000 2.420000 0.000000
2.580000 2.420000 0.000000
2.580000 2.580000 0.000000
2.420000 2.580000 0.000000
2.358579 2.358579 0.000000
2.641421 2.358579 0.000000
2.641421 2.641421 0.000000
2.358579 2.641421 0.000000
4.000000 3.000000 0.000000
3.420000 2.420000 0.000000
3.580000 2.420000 0.000000
3.580000 2.580000 0.000000
3.420000 2.580000 0.000000
3.358579 2.358579 0.000000
3.641421 2.358579 0.000000
3.641421 2.641421 0.000000
3.358579 2.641421 0.000000
1.000000 4.000000 0.000000
0.000000 4.000000 0.000000
0.420000 3.420000 0.000000
0.580000 3.420000 0.000000
0.580000 3.580000 0.000000
0.420000 3.580000 0.000000
0.358579 3.358579 0.000000
0.641421 3.358579 0.000000
0.641421 3.641421 0.000000
0.358579 3.641421 0.000000
2.000000 4.000000 0.000000
1.420000 3.420000 0.000000
1.580000 3.420000 0.000000
1.580000 3.580000 0.000000
1.420000 3.580000 0.000000
1.358579 3.358579 0.000000
1.641421 3.358579 0.000000
1.641421 3.641421 0.000000
1.358579 3.641421 0.000000
3.000000 4.000000 0.000000
2.420000 3.420000 0.000000
2.580000 3.420000 0.000000
2.580000 3.580000 0.000000
2.420000 3.580000 0.000000
2.358579 3.358579 0.000000
2.641421 3.358579 0.000000
2.641421 3.641421 0.000000
2.358579 3.641421 0.000000
4.000000 4.000000 0.000000
3.420000 3.420000 0.000000
3.580000 3.420000 0.000000
3.580000 3.580000 0.000000
3.420000 3.580000 0.000000
3.358579 3.358579 0.000000
3.641421 3.358579 0.000000
3.641421 3.641421 0.000000
3.358579 3.641421 0.000000
0.500000 0.000000 0.000000
0.250000 0.000000 0.000000
0.750000 0.000000 0.000000
1.000000 0.500000 0.000000
1.000000 0.250000 0.000000
1.000000 0.750000 0.000000
0.500000 1.000000 0.000000
0.750000 1.000000 0.000000
0.250000 1.000000 0.000000
0.000000 0.500000 0.000000
0.000000 0.750000 0.000000
0.000000 0.250000 0.000000
0.500000 0.420000 0.000000
0.460000 0.420000 0.000000
0.540000 0.420000 0.000000
0.580000 0.500000 0.000000
0.580000 0.460000 0.000000
0.580000 0.540000 0.000000
0.500000 0.580000 0.000000
0.540000 0.580000 0.000000
0.460000 0.580000 0.000000
0.420000 0.500000 0.000000
0.420000 0.540000 0.000000
0.420000 0.460000 0.000000
0.500000 0.300001 0.000000
0.423464 0.315225 0.000000
0.576536 0.315225 0.000000
0.699999 0.500000 0.000000
0.684775 0.423464 0.000000
0.684775 0.576536 0.000000
0.500000 0.699999 0.000000
0.576536 0.684775 0.000000
0.423464 0.684775 0.000000
0.300001 0.500000 0.000000
0.315225 0.576536 0.000000
0.315225 0.423464 0.000000
0.389290 0.389290 0.000000
0.404645 0.404645 0.000000
0.373934 0.373934 0.000000
0.610710 0.389290 0.000000
0.595355 0.404645 0.000000
0.626066 0.373934 0.000000
0.610710 0.610710 0.000000
0.595355 0.595355 0.000000
0.626066 0.626066 0.000000
0.389290 0.610710 0.000000
0.404645 0.595355 0.000000
0.373934 0.626066 0.000000
0.179290 0.179290 0.000000
0.268934 0.268934 0.000000
0.089645 0.089645 0.000000
0.820710 0.179290 0.000000
0.731066 0.268934 0.000000
0.910355 0.089645 0.000000
0.820710 0.820710 0.000000
0.731066 0.731066 0.000000
0.910355 0.910355 0.000000
0.179290 0.820710 0.000000
0.268934 0.731066 0.000000
0.089645 0.910355 0.000000
1.500000 0.000000 0.000000
1.250000 0.000000 0.000000
1.750000 0.000000 0.000000
2.000000 0.500000 0.000000
2.000000 0.250000 0.000000
2.000000 0.750000 0.000000
1.500000 1.000000 0.000000
1.750000 1.000000 0.000000
1.250000 1.000000 0.000000
1.500000 0.420000 0.000000
1.460000 0.420000 0.000000
1.540000 0.420000 0.000000
1.580000 0.500000 0.000000
1.580000 0.460000 0.000000
1.580000 0.540000 0.000000
1.500000 0.580000 0.000000
1.540000 0.580000 0.000000
1.460000 0.580000 0.000000
1.420000 0.500000 0.000000
1.420000 0.540000 0.000000
1.420000 0.460000 0.000000
1.500000 0.300001 0.000000
1.423464 0.315225 0.000000
1.576536 0.315225 0.000000
1.699999 0.500000 0.000000
1.684775 0.423464 0.000000
1.684775 0.576536 0.000000
1.500000 0.699999 0.000000
1.576536 0.684775 0.000000
1.423464 0.684775 0.000000
1.300001 0.500000 0.000000
1.315225 0.576536 0.000000
1.315225 0.423464 0.000000
1.389290 0.389290 0.000000
1.404645 0.404645 0.000000
1.373934 0.373934 0.000000
1.610710 0.389290 0.000000
1.595355 0.404645 0.000000
1.626066 0.373934 0.000000
1.610710 0.610710 0.000000
1.595355 0.595355 0.000000
1.626066 0.626066 0.000000
1.389290 0.610710 0.000000
1.404645 0.595355 0.000000
1.373934 0.626066 0.000000
1.179290 0.179290 0.000000
1.268934 0.268934 0.000000
1.089645 0.089645 0.000000
1.820710 0.179290 0.000000
1.731066 0.268934 0.000000
1.910355 0.089645 0.000000
1.820710 0.820710 0.000000
1.731066 0.731066 0.000000
1.910355 0.910355 0.000000
1.179290 0.820710 0.000000
1.268934 0.731066 0.000000
1.089645 0.910355 0.000000
2.500000 0.000000 0.000000
2.250000 0.000000 0.000000
2.750000 0.000000 0.000000
3.000000 0.500000 0.000000
3.000000 0.250000 0.000000
3.000000 0.750000 0.000000
2.500000 1.000000 0.000000
2.750000 1.000000 0.000000
2.250000 1.000000 0.000000
2.500000 0.420000 0.000000
2.460000 0.420000 0.000000
2.540000 0.420000 0.000000
2.580000 0.500000 0.000000
2.580000 0.460000 0.000000
2.580000 0.540000 0.000000
2.500000 0.580000 0.000000
2.540000 0.580000 0.000000
2.460000 0.580000 0.000000
2.420000 0.500000 0.000000
2.420000 0.540000 0.000000
2.420000 0.460000 0.000000
2.500000 0.300001 0.000000
2.423464 0.315225 0.000000
2.576536 0.315225 0.000000
2.699999 0.500000 0.000000
2.684775 0.423464 0.000000
2.684775 0.576536 0.000000
2.500000 0.699999 0.000000
2.576536 0.684775 0.000000
2.423464 0.684775 0.000000
2.300001 0.500000 0.000000
2.315225 0.576536 0.000000
2.315225 0.423464 0.000000
2.389289 0.389289 0.000000
2.404645 0.404645 0.000000
2.373934 0.373934 0.000000
2.610711 0.389289 0.000000
2.595355 0.404645 0.000000
2.626066 0.373934 0.000000
2.610711 0.610711 0.000000
2.595355 0.595355 0.000000
2.626066 0.626066 0.000000
2.389289 0.610711 0.000000
2.404645 0.595355 0.000000
2.373934 0.626066 0.000000
2.179290 0.179290 0.000000
2.268934 0.268934 0.000000
2.089645 0.089645 0.000000
2.820710 0.179290 0.000000
2.731066 0.268934 0.000000
2.910355 0.089645 0.000000
2.820710 0.820710 0.000000
2.731066 0.731066 0.000000
2.910355 0.910355 0.000000
2.179290 0.820710 0.000000
2.268934 0.731066 0.000000
2.089645 0.910355 0.000000
3.500000 0.000000 0.000000
3.250000 0.000000 0.000000
3.750000 0.000000 0.000000
4.000000 0.500000 0.000000
4.000000 0.250000 0.000000
4.000000 0.750000 0.000000
3.500000 1.000000 0.000000
3.750000 1.000000 0.000000
3.250000 1.000000 0.000000
3.500000 0.420000 0.000000
3.460000 0.420000 0.000000
3.540000 0.420000 0.000000
3.580000 0.500000 0.000000
3.580000 0.460000 0.000000
3.580000 0.540000 0.000000
3.500000 0.580000 0.000000
3.540000 0.580000 0.000000
3.460000 0.580000 0.000000
3.420000 0.500000 0.000000
3.420000 0.540000 0.000000
3.420000 0.460000 0.000000
3.500000 0.300001 0.000000
3.423464 0.315225 0.000000
3.576536 0.315225 0.000000
3.699999 0.500000 0.000000
3.684775 0.423464 0.000000
3.684775 0.576536 0.000000
3.500000 0.699999 0.000000
3.576536 0.684775 0.000000
3.423464 0.684775 0.000000
3.300001 0.500000 0.000000
3.315225 0.576536 0.000000
3.315225 0.423464 0.000000
3.389289 0.389289 0.000000
3.404645 0.404645 0.000000
3.373934 0.373934 0.000000
3.610711 0.389289 0.000000
3.595355 0.404645 0.000000
3.626066 0.373934 0.000000
3.610711 0.610711 0.000000
[...]
POINT_DATA 1761
VECTORS sol double
+0.000000 +0.000000 0
+0.000000 +0.000000 0
-0.003773 +0.020654 0
+0.000000 +0.000000 0
-0.009435 +0.051655 0
-0.021717 +0.061350 0
-0.011307 +0.061902 0
+0.001092 +0.051564 0
-0.006997 +0.038305 0
-0.025954 +0.053024 0
-0.009946 +0.054451 0
+0.009351 +0.037876 0
+0.000000 +0.000000 0
-0.088798 +0.024638 0
-0.243803 +0.122972 0
-0.244337 +0.116833 0
-0.265047 +0.125409 0
-0.261867 +0.131424 0
-0.190643 +0.098719 0
-0.190287 +0.089162 0
-0.224755 +0.102833 0
-0.217472 +0.112032 0
+0.000000 +0.000000 0
+0.129352 -0.055498 0
+0.088611 -0.073624 0
+0.131833 -0.091903 0
+0.137125 -0.096812 0
+0.087114 -0.076038 0
+0.056612 -0.052072 0
+0.120476 -0.079250 0
+0.133496 -0.088732 0
+0.050030 -0.054352 0
+0.000000 +0.000000 0
+0.000000 +0.000000 0
+0.353919 -0.153525 0
+0.323513 -0.138801 0
+0.353254 -0.149883 0
+0.387686 -0.166334 0
+0.285165 -0.124946 0
+0.239902 -0.102928 0
+0.284136 -0.119309 0
+0.341022 -0.146313 0
+0.094133 -0.053847 0
+0.000000 +0.000000 0
+0.236522 -0.083109 0
+0.254308 -0.090038 0
+0.260413 -0.100037 0
+0.239580 -0.090789 0
+0.183935 -0.061991 0
+0.210049 -0.071393 0
+0.222217 -0.088938 0
+0.187305 -0.072842 0
-0.000000 +0.000000 0
+0.003747 -0.020516 0
-0.029618 -0.009264 0
+0.004678 -0.025612 0
+0.038327 -0.038415 0
+0.002523 -0.013811 0
-0.050171 +0.002966 0
+0.004016 -0.021985 0
+0.057528 -0.043242 0
-0.094133 +0.053847 0
-0.148316 +0.058635 0
-0.128490 +0.055128 0
-0.150298 +0.069483 0
-0.160405 +0.068821 0
-0.124554 +0.045515 0
-0.086499 +0.037112 0
-0.127695 +0.062711 0
-0.137690 +0.059075 0
+0.000000 +0.000000 0
+0.122071 -0.014394 0
+0.117824 -0.015210 0
+0.074497 +0.003643 0
+0.071789 +0.007862 0
+0.121027 -0.020470 0
+0.109552 -0.019442 0
+0.045600 +0.008218 0
+0.036994 +0.017016 0
-0.129352 +0.055498 0
+0.000000 +0.000000 0
-0.074497 -0.003643 0
-0.071789 -0.007862 0
-0.122071 +0.014394 0
-0.117824 +0.015210 0
-0.045600 -0.008218 0
-0.036994 -0.017016 0
-0.121027 +0.020470 0
-0.109552 +0.019442 0
+0.088798 -0.024638 0
+0.150298 -0.069483 0
+0.160405 -0.068821 0
+0.148316 -0.058635 0
+0.128490 -0.055128 0
+0.127695 -0.062711 0
+0.137690 -0.059075 0
+0.124554 -0.045515 0
+0.086499 -0.037112 0
+0.003773 -0.020654 0
-0.004678 +0.025612 0
-0.038327 +0.038415 0
-0.003747 +0.020516 0
+0.029618 +0.009264 0
-0.004016 +0.021985 0
-0.057528 +0.043242 0
-0.002523 +0.013811 0
+0.050171 -0.002966 0
+0.000000 +0.000000 0
-0.260413 +0.100037 0
-0.239580 +0.090789 0
-0.236522 +0.083109 0
-0.254308 +0.090038 0
-0.222217 +0.088938 0
-0.187305 +0.072842 0
-0.183935 +0.061991 0
-0.210049 +0.071393 0
+0.000000 +0.000000 0
+0.000000 +0.000000 0
-0.353254 +0.149883 0
-0.387686 +0.166334 0
-0.353919 +0.153525 0
-0.323513 +0.138801 0
-0.284136 +0.119309 0
-0.341022 +0.146313 0
-0.285165 +0.124946 0
-0.239902 +0.102928 0
+0.000000 +0.000000 0
-0.137125 +0.096812 0
-0.087114 +0.076038 0
-0.088611 +0.073624 0
-0.131833 +0.091903 0
-0.133496 +0.088732 0
-0.050030 +0.054352 0
-0.056612 +0.052072 0
-0.120476 +0.079250 0
+0.000000 +0.000000 0
+0.265047 -0.125409 0
+0.261867 -0.131424 0
+0.243803 -0.122972 0
+0.244337 -0.116833 0
+0.224755 -0.102833 0
+0.217472 -0.112032 0
+0.190643 -0.098719 0
+0.190287 -0.089162 0
+0.000000 +0.000000 0
+0.011307 -0.061902 0
-0.001092 -0.051564 0
+0.009435 -0.051655 0
+0.021717 -0.061350 0
+0.009946 -0.054451 0
-0.009351 -0.037876 0
+0.006997 -0.038305 0
+0.025954 -0.053024 0
+0.000000 +0.000000 0
+0.000000 +0.000000 0
+0.000000 +0.000000 0
-0.086021 +0.064948 0
-0.057728 +0.042050 0
-0.061936 +0.053681 0
+0.074906 -0.004096 0
+0.051190 +0.005145 0
+0.050878 -0.004547 0
+0.000000 +0.000000 0
+0.000000 +0.000000 0
+0.000000 +0.000000 0
-0.015144 +0.058653 0
-0.012146 +0.055651 0
-0.018361 +0.060563 0
-0.018437 +0.064952 0
-0.020576 +0.063962 0
-0.015310 +0.064248 0
-0.004174 +0.058833 0
-0.007553 +0.060919 0
-0.001278 +0.055682 0
-0.005529 +0.054527 0
-0.002523 +0.053768 0
-0.007848 +0.053807 0
-0.014430 +0.042892 0
-0.010369 +0.040311 0
-0.019754 +0.047562 0
-0.030411 +0.060940 0
-0.030420 +0.058353 0
-0.022573 +0.059470 0
+0.011427 +0.042990 0
+0.002839 +0.048567 0
+0.012463 +0.039954 0
-0.000118 +0.036752 0
+0.004260 +0.037259 0
-0.003846 +0.037512 0
-0.008306 +0.045474 0
-0.008892 +0.048681 0
-0.007668 +0.041980 0
-0.024283 +0.057981 0
-0.023119 +0.059865 0
-0.025344 +0.055760 0
-0.010767 +0.058943 0
-0.011070 +0.060606 0
-0.010399 +0.056928 0
+0.005430 +0.045233 0
+0.003321 +0.048521 0
+0.007551 +0.041646 0
-0.001687 +0.009236 0
-0.003899 +0.021344 0
-0.000430 +0.002355 0
-0.027031 +0.028014 0
-0.028117 +0.039688 0
-0.017805 +0.015059 0
-0.006465 +0.035394 0
-0.007939 +0.043465 0
-0.005128 +0.028075 0
+0.020524 +0.007611 0
+0.017166 +0.020260 0
+0.014864 +0.001043 0
+0.000000 +0.000000 0
+0.000000 +0.000000 0
+0.000000 +0.000000 0
-0.075578 +0.020970 0
-0.043344 +0.012026 0
-0.087631 +0.024315 0
-0.111146 +0.047527 0
-0.114412 +0.041316 0
-0.066710 +0.037859 0
-0.255147 +0.125245 0
-0.252187 +0.125442 0
-0.252488 +0.122338 0
-0.266734 +0.127003 0
-0.258422 +0.123333 0
-0.268931 +0.127688 0
-0.275169 +0.134025 0
-0.273013 +0.131079 0
-0.271375 +0.134121 0
-0.265040 +0.133376 0
-0.266526 +0.133951 0
-0.257353 +0.129659 0
-0.180729 +0.089035 0
-0.184812 +0.093360 0
-0.184467 +0.088617 0
-0.209176 +0.094759 0
-0.200456 +0.092065 0
-0.219263 +0.099279 0
-0.226352 +0.108966 0
-0.228506 +0.106815 0
-0.223210 +0.111288 0
-0.206535 +0.109809 0
-0.213156 +0.112350 0
-0.199956 +0.105393 0
-0.219795 +0.112229 0
-0.232419 +0.117938 0
-0.205831 +0.105839 0
-0.219987 +0.104209 0
-0.232813 +0.110812 0
-0.205772 +0.096947 0
-0.247989 +0.115548 0
-0.257247 +0.120820 0
-0.237207 +0.109559 0
-0.242845 +0.123337 0
-0.253142 +0.127772 0
-0.231085 +0.118161 0
-0.066739 +0.039032 0
-0.119885 +0.065151 0
-0.027931 +0.017869 0
-0.061948 +0.025956 0
-0.117227 +0.052789 0
-0.023830 +0.008848 0
-0.131649 +0.049834 0
-0.169706 +0.072111 0
-0.105840 +0.034534 0
-0.099372 +0.061173 0
-0.152353 +0.083535 0
-0.050956 +0.040790 0
+0.000000 +0.000000 0
+0.000000 +0.000000 0
+0.000000 +0.000000 0
+0.192904 -0.094605 0
+0.119025 -0.059058 0
+0.185865 -0.088068 0
+0.002159 -0.017287 0
+0.064665 -0.037292 0
-0.049432 +0.004145 0
+0.114557 -0.086236 0
+0.102483 -0.080716 0
+0.124431 -0.089994 0
+0.141231 -0.099023 0
+0.138165 -0.096589 0
+0.140854 -0.099082 0
+0.116424 -0.089978 0
+0.128021 -0.094345 0
+0.102645 -0.083808 0
+0.093075 -0.078819 0
+0.091387 -0.078425 0
+0.092126 -0.077191 0
+0.083313 -0.062005 0
+0.069699 -0.056773 0
+0.100907 -0.070080 0
+0.149940 -0.094105 0
+0.138933 -0.088461 0
+0.148100 -0.094299 0
+0.087064 -0.070318 0
+0.111893 -0.080401 0
+0.066250 -0.061794 0
+0.040137 -0.047856 0
+0.041741 -0.050023 0
+0.046996 -0.049485 0
+0.073121 -0.063458 0
+0.080966 -0.068679 0
+0.064812 -0.057835 0
+0.128133 -0.086796 0
+0.130491 -0.089657 0
+0.125017 -0.083416 0
+0.137076 -0.093989 0
+0.137497 -0.095685 0
+0.135854 -0.091738 0
+0.069360 -0.065985 0
+0.078452 -0.071210 0
+0.059787 -0.060331 0
-0.002419 -0.008096 0
+0.020350 -0.025909 0
-0.008650 +0.000164 0
+0.072546 -0.040643 0
+0.096618 -0.058695 0
+0.040773 -0.021432 0
+0.128764 -0.069328 0
+0.127803 -0.076723 0
+0.130002 -0.062723 0
-0.041307 -0.001845 0
+0.000193 -0.025077 0
-0.070759 +0.014466 0
+0.000000 +0.000000 0
+0.000000 +0.000000 0
+0.000000 +0.000000 0
+0.000000 +0.000000 0
+0.000000 +0.000000 0
+0.000000 +0.000000 0
+0.188211 -0.068910 0
+0.115858 -0.041717 0
+0.182565 -0.070005 0
+0.354560 -0.152829 0
+0.358257 -0.154873 0
+0.342826 -0.147404 0
+0.354280 -0.151294 0
+0.342701 -0.146717 0
+0.357795 -0.152344 0
+0.387419 -0.165170 0
+0.374379 -0.159205 0
+0.391843 -0.167547 0
+0.387835 -0.167448 0
+0.392069 -0.168786 0
+0.374942 -0.162286 0
+0.249613 -0.108148 0
+0.265965 -0.115878 0
+0.243796 -0.105079 0
+0.249195 -0.105863 0
+0.243606 -0.104038 0
+0.265265 -0.112043 0
+0.324844 -0.136294 0
+0.307219 -0.128655 0
+0.337942 -0.143122 0
+0.326064 -0.142974 0
+0.338683 -0.147180 0
+0.308469 -0.135502 0
+0.323645 -0.141044 0
+0.339791 -0.147731 0
+0.305505 -0.133495 0
+0.284802 -0.122192 0
+0.304887 -0.130810 0
+0.262916 -0.112802 0
+0.322778 -0.136300 0
+0.339020 -0.143509 0
+0.304546 -0.128243 0
+0.369154 -0.158383 0
+0.379569 -0.162852 0
+0.356540 -0.152971 0
+0.112253 -0.051661 0
+0.188386 -0.084158 0
+0.050898 -0.024241 0
+0.057842 -0.024817 0
+0.133678 -0.057354 0
+0.014750 -0.006329 0
+0.110866 -0.044068 0
+0.187066 -0.076927 0
+0.049946 -0.019025 0
+0.221671 -0.095106 0
+0.272217 -0.116793 0
+0.175830 -0.075439 0
+0.111209 -0.047873 0
+0.063048 -0.017813 0
+0.117493 -0.058182 0
+0.080119 -0.045830 0
+0.092896 -0.053139 0
+0.045948 -0.026283 0
+0.000000 +0.000000 0
+0.000000 +0.000000 0
+0.000000 +0.000000 0
+0.257246 -0.090708 0
+0.249725 -0.087899 0
+0.258757 -0.091418 0
+0.268841 -0.099379 0
+0.264363 -0.095734 0
+0.267485 -0.100818 0
+0.261754 -0.099741 0
+0.264054 -0.100986 0
+0.253484 -0.096297 0
+0.248894 -0.091010 0
+0.246935 -0.091937 0
+0.245352 -0.088024 0
+0.198133 -0.063812 0
+0.192186 -0.062853 0
+0.204873 -0.067003 0
+0.221655 -0.083249 0
+0.217058 -0.077606 0
+0.225027 -0.087771 0
+0.207189 -0.083880 0
+0.217200 -0.087982 0
+0.198054 -0.078913 0
+0.176173 -0.064092 0
+0.180712 -0.068060 0
+0.179235 -0.062832 0
+0.212689 -0.073325 0
+0.225197 -0.078399 0
+0.198883 -0.067801 0
+0.235256 -0.081789 0
+0.245546 -0.086187 0
+0.223547 -0.076895 0
+0.244362 -0.095692 0
+0.253105 -0.098143 0
+0.234121 -0.092661 0
+0.216093 -0.082889 0
+0.228483 -0.087104 0
+0.202339 -0.078150 0
+0.062618 -0.016468 0
+0.114448 -0.035388 0
+0.025598 -0.005098 0
+0.092024 -0.020945 0
+0.145151 -0.044108 0
+0.043453 +0.000285 0
+0.134285 -0.064263 0
+0.169984 -0.073631 0
+0.110151 -0.058136 0
+0.062195 -0.027307 0
+0.116238 -0.047378 0
+0.024376 -0.011835 0
-0.075578 +0.020970 0
-0.087631 +0.024315 0
-0.043344 +0.012026 0
+0.080119 -0.045830 0
+0.045948 -0.026283 0
+0.092896 -0.053139 0
-0.013749 -0.015515 0
-0.005066 -0.018216 0
-0.022010 -0.012502 0
-0.012310 -0.018535 0
-0.021056 -0.014104 0
-0.003639 -0.022411 0
+0.021751 -0.033148 0
+0.013141 -0.029610 0
+0.030228 -0.036107 0
+0.022237 -0.030955 0
+0.030708 -0.035120 0
+0.013147 -0.026030 0
-0.039646 +0.002164 0
-0.021176 -0.004282 0
-0.048783 +0.004008 0
-0.032885 -0.006085 0
-0.044288 -0.000812 0
-0.015898 -0.013508 0
+0.040890 -0.037738 0
+0.023956 -0.030607 0
+0.052142 -0.042184 0
+0.045531 -0.034380 0
+0.055491 -0.040730 0
+0.026475 -0.024726 0
+0.003177 -0.017395 0
+0.003474 -0.019020 0
+0.002861 -0.015662 0
-0.040730 -0.003010 0
-0.035372 -0.006100 0
-0.045875 +0.000111 0
+0.004412 -0.024155 0
+0.004562 -0.024974 0
+0.004235 -0.023183 0
+0.048850 -0.041444 0
+0.043805 -0.040070 0
+0.053633 -0.042582 0
-0.000883 +0.004834 0
+0.000738 -0.004038 0
-0.002375 +0.013001 0
-0.089556 +0.025755 0
-0.072424 +0.016463 0
-0.095106 +0.028394 0
+0.001934 -0.010586 0
+0.002910 -0.015933 0
+0.000976 -0.005342 0
+0.094577 -0.053246 0
+0.078216 -0.048168 0
+0.100025 -0.055326 0
-0.004326 +0.018216 0
+0.060881 -0.016573 0
-0.056196 +0.041174 0
-0.080119 +0.045830 0
-0.092896 +0.053139 0
-0.045948 +0.026283 0
-0.144996 +0.059562 0
-0.148358 +0.059773 0
-0.138289 +0.057992 0
-0.146046 +0.065308 0
-0.138820 +0.060900 0
-0.149896 +0.068191 0
-0.162341 +0.072158 0
-0.157984 +0.071556 0
-0.163147 +0.071232 0
-0.161348 +0.066719 0
-0.162657 +0.068552 0
-0.156489 +0.063367 0
-0.099642 +0.036484 0
-0.113473 +0.041012 0
-0.090141 +0.035168 0
-0.102126 +0.050084 0
-0.091531 +0.042777 0
-0.116514 +0.057662 0
-0.138306 +0.064767 0
-0.136046 +0.065465 0
-0.138725 +0.062451 0
-0.136154 +0.052988 0
-0.137562 +0.056088 0
-0.133234 +0.050068 0
-0.137899 +0.052574 0
-0.143423 +0.055709 0
-0.131545 +0.049117 0
-0.108946 +0.046743 0
-0.119119 +0.051107 0
-0.098092 +0.042086 0
-0.140511 +0.066877 0
-0.145732 +0.068351 0
-0.134447 +0.065005 0
-0.151278 +0.064905 0
-0.156409 +0.067106 0
-0.145194 +0.062295 0
-0.083400 +0.022234 0
-0.097088 +0.030571 0
-0.081493 +0.020607 0
+0.030274 -0.012989 0
-0.025288 +0.010850 0
+0.081421 -0.034933 0
-0.088771 +0.051635 0
-0.101482 +0.054624 0
-0.087184 +0.051763 0
-0.066301 +0.028446 0
-0.099786 +0.042813 0
-0.033456 +0.014354 0
+0.000000 +0.000000 0
+0.000000 +0.000000 0
+0.000000 +0.000000 0
-0.080119 +0.045830 0
-0.045948 +0.026283 0
-0.092896 +0.053139 0
+0.125999 -0.015630 0
+0.125534 -0.015210 0
+0.123376 -0.015624 0
+0.099856 -0.005756 0
+0.109920 -0.010552 0
+0.087917 -0.000974 0
+0.077662 +0.005565 0
+0.077196 +0.004545 0
+0.075842 +0.006677 0
+0.100558 -0.003116 0
+0.086881 +0.002493 0
+0.112396 -0.008804 0
+0.138138 -0.029492 0
+0.135908 -0.027553 0
+0.127496 -0.025848 0
+0.072904 -0.005019 0
+0.090290 -0.011952 0
+0.059048 +0.001535 0
+0.027993 +0.018625 0
+0.035373 +0.014145 0
+0.029012 +0.019667 0
+0.073998 +0.001215 0
+0.053022 +0.010621 0
+0.099052 -0.010104 0
+0.123132 -0.017651 0
+0.122953 -0.016060 0
+0.122594 -0.019147 0
+0.115520 -0.017742 0
+0.117145 -0.016590 0
+0.113214 -0.018796 0
+0.060403 +0.006171 0
+0.067512 +0.004976 0
+0.052909 +0.007328 0
+0.055001 +0.012629 0
+0.063568 +0.010277 0
+0.046040 +0.014926 0
+0.123181 -0.038768 0
+0.119126 -0.029220 0
+0.127249 -0.047649 0
+0.068773 -0.019989 0
+0.089784 -0.021279 0
+0.039211 -0.012885 0
-0.006039 +0.011725 0
+0.013541 +0.011368 0
-0.010056 +0.007861 0
-0.049063 +0.040617 0
-0.009714 +0.029161 0
-0.077058 +0.048954 0
+0.004326 -0.018216 0
+0.056196 -0.041174 0
-0.060881 +0.016573 0
-0.188211 +0.068910 0
-0.182565 +0.070005 0
-0.115858 +0.041717 0
+0.000000 +0.000000 0
+0.000000 +0.000000 0
+0.000000 +0.000000 0
-0.077662 -0.005565 0
-0.077196 -0.004545 0
-0.075842 -0.006677 0
-0.100558 +0.003116 0
-0.086881 -0.002493 0
-0.112396 +0.008804 0
-0.125999 +0.015630 0
-0.125534 +0.015210 0
-0.123376 +0.015624 0
-0.099856 +0.005756 0
-0.109920 +0.010552 0
-0.087917 +0.000974 0
-0.027993 -0.018625 0
-0.035373 -0.014145 0
-0.029012 -0.019667 0
-0.073998 -0.001215 0
-0.053022 -0.010621 0
-0.099052 +0.010104 0
-0.138138 +0.029492 0
-0.135908 +0.027553 0
-0.127496 +0.025848 0
-0.072904 +0.005019 0
-0.090290 +0.011952 0
-0.059048 -0.001535 0
-0.060403 -0.006171 0
-0.067512 -0.004976 0
-0.052909 -0.007328 0
-0.055001 -0.012629 0
-0.063568 -0.010277 0
-0.046040 -0.014926 0
-0.123132 +0.017651 0
-0.122953 +0.016060 0
-0.122594 +0.019147 0
-0.115520 +0.017742 0
-0.117145 +0.016590 0
-0.113214 +0.018796 0
+0.006039 -0.011725 0
-0.013541 -0.011368 0
+0.010056 -0.007861 0
+0.049063 -0.040617 0
+0.009714 -0.029161 0
+0.077058 -0.048954 0
-0.123181 +0.038768 0
-0.119126 +0.029220 0
-0.127249 +0.047649 0
-0.068773 +0.019989 0
-0.089784 +0.021279 0
-0.039211 +0.012885 0
+0.075578 -0.020970 0
+0.043344 -0.012026 0
+0.087631 -0.024315 0
-0.002159 +0.017287 0
+0.049432 -0.004145 0
-0.064665 +0.037292 0
+0.162341 -0.072158 0
+0.157984 -0.071556 0
+0.163147 -0.071232 0
+0.161348 -0.066719 0
+0.162657 -0.068552 0
+0.156489 -0.063367 0
+0.144996 -0.059562 0
+0.148358 -0.059773 0
+0.138289 -0.057992 0
+0.146046 -0.065308 0
+0.138820 -0.060900 0
+0.149896 -0.068191 0
+0.138306 -0.064767 0
+0.136046 -0.065465 0
+0.138725 -0.062451 0
+0.136154 -0.052988 0
+0.137562 -0.056088 0
+0.133234 -0.050068 0
+0.099642 -0.036484 0
+0.113473 -0.041012 0
+0.090141 -0.035168 0
+0.102126 -0.050084 0
+0.091531 -0.042777 0
+0.116514 -0.057662 0
+0.140511 -0.066877 0
+0.145732 -0.068351 0
+0.134447 -0.065005 0
+0.151278 -0.064905 0
+0.156409 -0.067106 0
+0.145194 -0.062295 0
+0.137899 -0.052574 0
+0.143423 -0.055709 0
+0.131545 -0.049117 0
+0.108946 -0.046743 0
+0.119119 -0.051107 0
+0.098092 -0.042086 0
+0.088771 -0.051635 0
+0.101482 -0.054624 0
+0.087184 -0.051763 0
+0.066301 -0.028446 0
+0.099786 -0.042813 0
+0.033456 -0.014354 0
+0.083400 -0.022234 0
+0.097088 -0.030571 0
+0.081493 -0.020607 0
-0.030274 +0.012989 0
+0.025288 -0.010850 0
-0.081421 +0.034933 0
-0.111209 +0.047873 0
-0.117493 +0.058182 0
-0.063048 +0.017813 0
+0.111146 -0.047527 0
+0.066710 -0.037859 0
+0.114412 -0.041316 0
-0.021751 +0.033148 0
-0.013141 +0.029610 0
-0.030228 +0.036107 0
-0.022237 +0.030955 0
-0.030708 +0.035120 0
-0.013147 +0.026030 0
+0.013749 +0.015515 0
+0.005066 +0.018216 0
+0.022010 +0.012502 0
+0.012310 +0.018535 0
+0.021056 +0.014104 0
+0.003639 +0.022411 0
-0.040890 +0.037738 0
-0.023956 +0.030607 0
-0.052142 +0.042184 0
-0.045531 +0.034380 0
-0.055491 +0.040730 0
-0.026475 +0.024726 0
+0.039646 -0.002164 0
+0.021176 +0.004282 0
+0.048783 -0.004008 0
+0.032885 +0.006085 0
+0.044288 +0.000812 0
+0.015898 +0.013508 0
-0.004412 +0.024155 0
-0.004562 +0.024974 0
-0.004235 +0.023183 0
-0.048850 +0.041444 0
-0.043805 +0.040070 0
-0.053633 +0.042582 0
-0.003177 +0.017395 0
-0.003474 +0.019020 0
-0.002861 +0.015662 0
+0.040730 +0.003010 0
+0.035372 +0.006100 0
+0.045875 -0.000111 0
-0.001934 +0.010586 0
-0.002910 +0.015933 0
-0.000976 +0.005342 0
-0.094577 +0.053246 0
-0.078216 +0.048168 0
-0.100025 +0.055326 0
+0.000883 -0.004834 0
-0.000738 +0.004038 0
+0.002375 -0.013001 0
+0.089556 -0.025755 0
+0.072424 -0.016463 0
+0.095106 -0.028394 0
+0.000000 +0.000000 0
+0.000000 +0.000000 0
+0.000000 +0.000000 0
-0.074906 +0.004096 0
-0.050878 +0.004547 0
-0.051190 -0.005145 0
-0.261754 +0.099741 0
-0.264054 +0.100986 0
-0.253484 +0.096297 0
-0.248894 +0.091010 0
-0.246935 +0.091937 0
-0.245352 +0.088024 0
-0.257246 +0.090708 0
-0.249725 +0.087899 0
-0.258757 +0.091418 0
-0.268841 +0.099379 0
-0.264363 +0.095734 0
-0.267485 +0.100818 0
-0.207189 +0.083880 0
-0.217200 +0.087982 0
-0.198054 +0.078913 0
-0.176173 +0.064092 0
-0.180712 +0.068060 0
-0.179235 +0.062832 0
-0.198133 +0.063812 0
-0.192186 +0.062853 0
-0.204873 +0.067003 0
-0.221655 +0.083249 0
-0.217058 +0.077606 0
-0.225027 +0.087771 0
-0.244362 +0.095692 0
-0.253105 +0.098143 0
-0.234121 +0.092661 0
-0.216093 +0.082889 0
-0.228483 +0.087104 0
-0.202339 +0.078150 0
-0.212689 +0.073325 0
-0.225197 +0.078399 0
-0.198883 +0.067801 0
-0.235256 +0.081789 0
-0.245546 +0.086187 0
-0.223547 +0.076895 0
-0.134285 +0.064263 0
-0.169984 +0.073631 0
-0.110151 +0.058136 0
-0.062195 +0.027307 0
-0.116238 +0.047378 0
-0.024376 +0.011835 0
-0.062618 +0.016468 0
-0.114448 +0.035388 0
-0.025598 +0.005098 0
-0.092024 +0.020945 0
-0.145151 +0.044108 0
-0.043453 -0.000285 0
-0.192904 +0.094605 0
-0.185865 +0.088068 0
-0.119025 +0.059058 0
+0.000000 +0.000000 0
+0.000000 +0.000000 0
+0.000000 +0.000000 0
+0.000000 +0.000000 0
+0.000000 +0.000000 0
+0.000000 +0.000000 0
-0.387419 +0.165170 0
-0.374379 +0.159205 0
-0.391843 +0.167547 0
-0.387835 +0.167448 0
-0.392069 +0.168786 0
-0.374942 +0.162286 0
-0.354560 +0.152829 0
-0.358257 +0.154873 0
-0.342826 +0.147404 0
-0.354280 +0.151294 0
-0.342701 +0.146717 0
-0.357795 +0.152344 0
-0.324844 +0.136294 0
-0.307219 +0.128655 0
-0.337942 +0.143122 0
-0.326064 +0.142974 0
-0.338683 +0.147180 0
-0.308469 +0.135502 0
-0.249613 +0.108148 0
-0.265965 +0.115878 0
-0.243796 +0.105079 0
-0.249195 +0.105863 0
-0.243606 +0.104038 0
-0.265265 +0.112043 0
-0.322778 +0.136300 0
-0.339020 +0.143509 0
-0.304546 +0.128243 0
-0.369154 +0.158383 0
-0.379569 +0.162852 0
-0.356540 +0.152971 0
-0.323645 +0.141044 0
-0.339791 +0.147731 0
-0.305505 +0.133495 0
-0.284802 +0.122192 0
-0.304887 +0.130810 0
-0.262916 +0.112802 0
-0.110866 +0.044068 0
-0.187066 +0.076927 0
-0.049946 +0.019025 0
-0.221671 +0.095106 0
-0.272217 +0.116793 0
-0.175830 +0.075439 0
-0.112253 +0.051661 0
-0.188386 +0.084158 0
-0.050898 +0.024241 0
-0.057842 +0.024817 0
-0.133678 +0.057354 0
-0.014750 +0.006329 0
+0.075578 -0.020970 0
+0.087631 -0.024315 0
+0.043344 -0.012026 0
+0.000000 +0.000000 0
+0.000000 +0.000000 0
+0.000000 +0.000000 0
-0.116424 +0.089978 0
-0.128021 +0.094345 0
-0.102645 +0.083808 0
-0.093075 +0.078819 0
-0.091387 +0.078425 0
-0.092126 +0.077191 0
-0.114557 +0.086236 0
-0.102483 +0.080716 0
-0.124431 +0.089994 0
-0.141231 +0.099023 0
-0.138165 +0.096589 0
-0.140854 +0.099082 0
-0.087064 +0.070318 0
-0.111893 +0.080401 0
-0.066250 +0.061794 0
-0.040137 +0.047856 0
-0.041741 +0.050023 0
-0.046996 +0.049485 0
-0.083313 +0.062005 0
-0.069699 +0.056773 0
-0.100907 +0.070080 0
-0.149940 +0.094105 0