# vtk DataFile Version 2.0
MyTitle
ASCII
DATASET UNSTRUCTURED_GRID
POINTS 1761 double
0.000000 0.000000 0.000000
1.000000 0.000000 0.000000
1.000000 1.000000 0.000000
0.000000 1.000000 0.000000
0.420000 0.420000 0.000000
0.580000 0.420000 0.000000
0.580000 0.580000 0.000000
0.420000 0.580000 0.000000
0.358579 0.358579 0.000000
0.641421 0.358579 0.000000
0.641421 0.641421 0.000000
0.358579 0.641421 0.000000
2.000000 0.000000 0.000000
2.000000 1.000000 0.000000
1.420000 0.420000 0.000000
1.580000 0.420000 0.000000
1.580000 0.580000 0.000000
1.420000 0.580000 0.000000
1.358579 0.358579 0.000000
1.641421 0.358579 0.000000
1.641421 0.641421 0.000000
1.358579 0.641421 0.000000
3.000000 0.000000 0.000000
3.000000 1.000000 0.000000
2.420000 0.420000 0.000000
2.580000 0.420000 0.000000
2.580000 0.580000 0.000000
2.420000 0.580000 0.000000
2.358579 0.358579 0.000000
2.641421 0.358579 0.000000
2.641421 0.641421 0.000000
2.358579 0.641421 0.000000
4.000000 0.000000 0.000000
4.000000 1.000000 0.000000
3.420000 0.420000 0.000000
3.580000 0.420000 0.000000
3.580000 0.580000 0.000000
3.420000 0.580000 0.000000
3.358579 0.358579 0.000000
3.641421 0.358579 0.000000
3.641421 0.641421 0.000000
3.358579 0.641421 0.000000
1.000000 2.000000 0.000000
0.000000 2.000000 0.000000
0.420000 1.420000 0.000000
0.580000 1.420000 0.000000
0.580000 1.580000 0.000000
0.420000 1.580000 0.000000
0.358579 1.358579 0.000000
0.641421 1.358579 0.000000
0.641421 1.641421 0.000000
0.358579 1.641421 0.000000
2.000000 2.000000 0.000000
1.420000 1.420000 0.000000
1.580000 1.420000 0.000000
1.580000 1.580000 0.000000
1.420000 1.580000 0.000000
1.358579 1.358579 0.000000
1.641421 1.358579 0.000000
1.641421 1.641421 0.000000
1.358579 1.641421 0.000000
3.000000 2.000000 0.000000
2.420000 1.420000 0.000000
2.580000 1.420000 0.000000
2.580000 1.580000 0.000000
2.420000 1.580000 0.000000
2.358579 1.358579 0.000000
2.641421 1.358579 0.000000
2.641421 1.641421 0.000000
2.358579 1.641421 0.000000
4.000000 2.000000 0.000000
3.420000 1.420000 0.000000
3.580000 1.420000 0.000000
3.580000 1.580000 0.000000
3.420000 1.580000 0.000000
3.358579 1.358579 0.000000
3.641421 1.358579 0.000000
3.641421 1.641421 0.000000
3.358579 1.641421 0.000000
1.000000 3.000000 0.000000
0.000000 3.000000 0.000000
0.420000 2.420000 0.000000
0.580000 2.420000 0.000000
0.580000 2.580000 0.000000
0.420000 2.580000 0.000000
0.358579 2.358579 0.000000
0.641421 2.358579 0.000000
0.641421 2.641421 0.000000
0.358579 2.641421 0.000000
2.000000 3.000000 0.000000
1.420000 2.420000 0.000000
1.580000 2.420000 0.000000
1.580000 2.580000 0.000000
1.420000 2.580000 0.000000
1.358579 2.358579 0.000000
1.641421 2.358579 0.000000
1.641421 2.641421 0.000000
1.358579 2.641421 0.000000
3.000000 3.000000 0.000000
2.420000 2.420000 0.000000
2.580000 2.420000 0.000000
2.580000 2.580000 0.000000
2.420000 2.580000 0.000000
2.358579 2.358579 0.000000
2.641421 2.358579 0.000000
2.641421 2.641421 0.000000
2.358579 2.641421 0.000000
4.000000 3.000000 0.000000
3.420000 2.420000 0.000000
3.580000 2.420000 0.000000
3.580000 2.580000 0.000000
3.420000 2.580000 0.000000
3.358579 2.358579 0.000000
3.641421 2.358579 0.000000
3.641421 2.641421 0.000000
3.358579 2.641421 0.000000
1.000000 4.000000 0.000000
0.000000 4.000000 0.000000
0.420000 3.420000 0.000000
0.580000 3.420000 0.000000
0.580000 3.580000 0.000000
0.420000 3.580000 0.000000
0.358579 3.358579 0.000000
0.641421 3.358579 0.000000
0.641421 3.641421 0.000000
0.358579 3.641421 0.000000
2.000000 4.000000 0.000000
1.420000 3.420000 0.000000
1.580000 3.420000 0.000000
1.580000 3.580000 0.000000
1.420000 3.580000 0.000000
1.358579 3.358579 0.000000
1.641421 3.358579 0.000000
1.641421 3.641421 0.000000
1.358579 3.641421 0.000000
3.000000 4.000000 0.000000
2.420000 3.420000 0.000000
2.580000 3.420000 0.000000
2.580000 3.580000 0.000000
2.420000 3.580000 0.000000
2.358579 3.358579 0.000000
2.641421 3.358579 0.000000
2.641421 3.641421 0.000000
2.358579 3.641421 0.000000
4.000000 4.000000 0.000000
3.420000 3.420000 0.000000
3.580000 3.420000 0.000000
3.580000 3.580000 0.000000
3.420000 3.580000 0.000000
3.358579 3.358579 0.000000
3.641421 3.358579 0.000000
3.641421 3.641421 0.000000
3.358579 3.641421 0.000000
0.500000 0.000000 0.000000
0.250000 0.000000 0.000000
0.750000 0.000000 0.000000
1.000000 0.500000 0.000000
1.000000 0.250000 0.000000
1.000000 0.750000 0.000000
0.500000 1.000000 0.000000
0.750000 1.000000 0.000000
0.250000 1.000000 0.000000
0.000000 0.500000 0.000000
0.000000 0.750000 0.000000
0.000000 0.250000 0.000000
0.500000 0.420000 0.000000
0.460000 0.420000 0.000000
0.540000 0.420000 0.000000
0.580000 0.500000 0.000000
0.580000 0.460000 0.000000
0.580000 0.540000 0.000000
0.500000 0.580000 0.000000
0.540000 0.580000 0.000000
0.460000 0.580000 0.000000
0.420000 0.500000 0.000000
0.420000 0.540000 0.000000
0.420000 0.460000 0.000000
0.500000 0.300001 0.000000
0.423464 0.315225 0.000000
0.576536 0.315225 0.000000
0.699999 0.500000 0.000000
0.684775 0.423464 0.000000
0.684775 0.576536 0.000000
0.500000 0.699999 0.000000
0.576536 0.684775 0.000000
0.423464 0.684775 0.000000
0.300001 0.500000 0.000000
0.315225 0.576536 0.000000
0.315225 0.423464 0.000000
0.389290 0.389290 0.000000
0.404645 0.404645 0.000000
0.373934 0.373934 0.000000
0.610710 0.389290 0.000000
0.595355 0.404645 0.000000
0.626066 0.373934 0.000000
0.610710 0.610710 0.000000
0.595355 0.595355 0.000000
0.626066 0.626066 0.000000
0.389290 0.610710 0.000000
0.404645 0.595355 0.000000
0.373934 0.626066 0.000000
0.179290 0.179290 0.000000
0.268934 0.268934 0.000000
0.089645 0.089645 0.000000
0.820710 0.179290 0.000000
0.731066 0.268934 0.000000
0.910355 0.089645 0.000000
0.820710 0.820710 0.000000
0.731066 0.731066 0.000000
0.910355 0.910355 0.000000
0.179290 0.820710 0.000000
0.268934 0.731066 0.000000
0.089645 0.910355 0.000000
1.500000 0.000000 0.000000
1.250000 0.000000 0.000000
1.750000 0.000000 0.000000
2.000000 0.500000 0.000000
2.000000 0.250000 0.000000
2.000000 0.750000 0.000000
1.500000 1.000000 0.000000
1.750000 1.000000 0.000000
1.250000 1.000000 0.000000
1.500000 0.420000 0.000000
1.460000 0.420000 0.000000
1.540000 0.420000 0.000000
1.580000 0.500000 0.000000
1.580000 0.460000 0.000000
1.580000 0.540000 0.000000
1.500000 0.580000 0.000000
1.540000 0.580000 0.000000
1.460000 0.580000 0.000000
1.420000 0.500000 0.000000
1.420000 0.540000 0.000000
1.420000 0.460000 0.000000
1.500000 0.300001 0.000000
1.423464 0.315225 0.000000
1.576536 0.315225 0.000000
1.699999 0.500000 0.000000
1.684775 0.423464 0.000000
1.684775 0.576536 0.000000
1.500000 0.699999 0.000000
1.576536 0.684775 0.000000
1.423464 0.684775 0.000000
1.300001 0.500000 0.000000
1.315225 0.576536 0.000000
1.315225 0.423464 0.000000
1.389290 0.389290 0.000000
1.404645 0.404645 0.000000
1.373934 0.373934 0.000000
1.610710 0.389290 0.000000
1.595355 0.404645 0.000000
1.626066 0.373934 0.000000
1.610710 0.610710 0.000000
1.595355 0.595355 0.000000
1.626066 0.626066 0.000000
1.389290 0.610710 0.000000
1.404645 0.595355 0.000000
1.373934 0.626066 0.000000
1.179290 0.179290 0.000000
1.268934 0.268934 0.000000
1.089645 0.089645 0.000000
1.820710 0.179290 0.000000
1.731066 0.268934 0.000000
1.910355 0.089645 0.000000
1.820710 0.820710 0.000000
1.731066 0.731066 0.000000
1.910355 0.910355 0.000000
1.179290 0.820710 0.000000
1.268934 0.731066 0.000000
1.089645 0.910355 0.000000
2.500000 0.000000 0.000000
2.250000 0.000000 0.000000
2.750000 0.000000 0.000000
3.000000 0.500000 0.000000
3.000000 0.250000 0.000000
3.000000 0.750000 0.000000
2.500000 1.000000 0.000000
2.750000 1.000000 0.000000
2.250000 1.000000 0.000000
2.500000 0.420000 0.000000
2.460000 0.420000 0.000000
2.540000 0.420000 0.000000
2.580000 0.500000 0.000000
2.580000 0.460000 0.000000
2.580000 0.540000 0.000000
2.500000 0.580000 0.000000
2.540000 0.580000 0.000000
2.460000 0.580000 0.000000
2.420000 0.500000 0.000000
2.420000 0.540000 0.000000
2.420000 0.460000 0.000000
2.500000 0.300001 0.000000
2.423464 0.315225 0.000000
2.576536 0.315225 0.000000
2.699999 0.500000 0.000000
2.684775 0.423464 0.000000
2.684775 0.576536 0.000000
2.500000 0.699999 0.000000
2.576536 0.684775 0.000000
2.423464 0.684775 0.000000
2.300001 0.500000 0.000000
2.315225 0.576536 0.000000
2.315225 0.423464 0.000000
2.389289 0.389289 0.000000
2.404645 0.404645 0.000000
2.373934 0.373934 0.000000
2.610711 0.389289 0.000000
2.595355 0.404645 0.000000
2.626066 0.373934 0.000000
2.610711 0.610711 0.000000
2.595355 0.595355 0.000000
2.626066 0.626066 0.000000
2.389289 0.610711 0.000000
2.404645 0.595355 0.000000
2.373934 0.626066 0.000000
2.179290 0.179290 0.000000
2.268934 0.268934 0.000000
2.089645 0.089645 0.000000
2.820710 0.179290 0.000000
2.731066 0.268934 0.000000
2.910355 0.089645 0.000000
2.820710 0.820710 0.000000
2.731066 0.731066 0.000000
2.910355 0.910355 0.000000
2.179290 0.820710 0.000000
2.268934 0.731066 0.000000
2.089645 0.910355 0.000000
3.500000 0.000000 0.000000
3.250000 0.000000 0.000000
3.750000 0.000000 0.000000
4.000000 0.500000 0.000000
4.000000 0.250000 0.000000
4.000000 0.750000 0.000000
3.500000 1.000000 0.000000
3.750000 1.000000 0.000000
3.250000 1.000000 0.000000
3.500000 0.420000 0.000000
3.460000 0.420000 0.000000
3.540000 0.420000 0.000000
3.580000 0.500000 0.000000
3.580000 0.460000 0.000000
3.580000 0.540000 0.000000
3.500000 0.580000 0.000000
3.540000 0.580000 0.000000
3.460000 0.580000 0.000000
3.420000 0.500000 0.000000
3.420000 0.540000 0.000000
3.420000 0.460000 0.000000
3.500000 0.300001 0.000000
3.423464 0.315225 0.000000
3.576536 0.315225 0.000000
3.699999 0.500000 0.000000
3.684775 0.423464 0.000000
3.684775 0.576536 0.000000
3.500000 0.699999 0.000000
3.576536 0.684775 0.000000
3.423464 0.684775 0.000000
3.300001 0.500000 0.000000
3.315225 0.576536 0.000000
3.315225 0.423464 0.000000
3.389289 0.389289 0.000000
3.404645 0.404645 0.000000
3.373934 0.373934 0.000000
3.610711 0.389289 0.000000
3.595355 0.404645 0.000000
3.626066 0.373934 0.000000
3.610711 0.610711 0.000000
[...]
POINT_DATA 1761
VECTORS sol double
+0.000000 +0.000000 0
+0.000000 +0.000000 0
-0.092312 -0.044932 0
+0.000000 +0.000000 0
-0.230875 -0.112377 0
-0.249248 -0.114702 0
-0.276672 -0.134669 0
-0.255426 -0.130945 0
-0.171206 -0.083334 0
-0.198359 -0.086308 0
-0.243370 -0.118459 0
-0.207922 -0.111448 0
+0.000000 +0.000000 0
+0.090050 +0.096905 0
-0.024030 +0.127659 0
+0.007339 +0.143971 0
+0.014466 +0.159492 0
-0.022578 +0.138767 0
-0.031348 +0.093417 0
+0.014668 +0.116690 0
+0.029484 +0.144031 0
-0.032918 +0.108013 0
+0.000000 +0.000000 0
-0.035038 -0.092112 0
+0.150583 +0.025974 0
+0.137580 -0.005466 0
+0.149080 -0.002636 0
+0.165976 +0.034686 0
+0.120891 +0.029188 0
+0.102505 -0.016844 0
+0.118079 -0.016370 0
+0.147705 +0.046647 0
+0.000000 +0.000000 0
+0.000000 +0.000000 0
-0.087638 -0.247828 0
-0.087631 -0.230374 0
-0.103916 -0.255751 0
-0.105014 -0.276072 0
-0.064506 -0.196568 0
-0.064983 -0.170835 0
-0.089702 -0.208832 0
-0.092374 -0.242843 0
+0.040499 -0.033361 0
+0.000000 +0.000000 0
-0.154138 -0.214382 0
-0.162397 -0.228803 0
-0.127867 -0.214690 0
-0.123741 -0.200629 0
-0.132811 -0.173321 0
-0.148722 -0.196426 0
-0.091589 -0.174260 0
-0.087612 -0.152195 0
-0.000000 +0.000000 0
+0.091697 +0.044633 0
+0.115755 +0.076056 0
+0.114473 +0.055719 0
+0.097351 +0.027672 0
+0.061730 +0.030047 0
+0.104596 +0.082158 0
+0.098262 +0.047829 0
+0.075423 +0.005465 0
-0.040499 +0.033361 0
+0.064687 +0.118123 0
+0.034804 +0.091498 0
+0.016199 +0.094521 0
+0.043449 +0.114225 0
+0.072594 +0.108519 0
+0.023430 +0.061596 0
-0.004266 +0.071108 0
+0.037296 +0.098049 0
+0.000000 +0.000000 0
-0.219289 -0.181938 0
-0.205205 -0.172315 0
-0.194765 -0.142123 0
-0.209019 -0.147841 0
-0.187022 -0.164876 0
-0.164813 -0.146960 0
-0.148578 -0.101974 0
-0.171277 -0.108616 0
+0.035038 +0.092112 0
+0.000000 +0.000000 0
+0.194765 +0.142123 0
+0.209019 +0.147841 0
+0.219289 +0.181938 0
+0.205205 +0.172315 0
+0.148578 +0.101974 0
+0.171277 +0.108616 0
+0.187022 +0.164876 0
+0.164813 +0.146960 0
-0.090050 -0.096905 0
-0.016199 -0.094521 0
-0.043449 -0.114225 0
-0.064687 -0.118123 0
-0.034804 -0.091498 0
+0.004266 -0.071108 0
-0.037296 -0.098049 0
-0.072594 -0.108519 0
-0.023430 -0.061596 0
+0.092312 +0.044932 0
-0.114473 -0.055719 0
-0.097351 -0.027672 0
-0.091697 -0.044633 0
-0.115755 -0.076056 0
-0.098262 -0.047829 0
-0.075423 -0.005465 0
-0.061730 -0.030047 0
-0.104596 -0.082158 0
+0.000000 +0.000000 0
+0.127867 +0.214690 0
+0.123741 +0.200629 0
+0.154138 +0.214382 0
+0.162397 +0.228803 0
+0.091589 +0.174260 0
+0.087612 +0.152195 0
+0.132811 +0.173321 0
+0.148722 +0.196426 0
+0.000000 +0.000000 0
+0.000000 +0.000000 0
+0.103916 +0.255751 0
+0.105014 +0.276072 0
+0.087638 +0.247828 0
+0.087631 +0.230374 0
+0.089702 +0.208832 0
+0.092374 +0.242843 0
+0.064506 +0.196568 0
+0.064983 +0.170835 0
+0.000000 +0.000000 0
-0.149080 +0.002636 0
-0.165976 -0.034686 0
-0.150583 -0.025974 0
-0.137580 +0.005466 0
-0.118079 +0.016370 0
-0.147705 -0.046647 0
-0.120891 -0.029188 0
-0.102505 +0.016844 0
+0.000000 +0.000000 0
-0.014466 -0.159492 0
+0.022578 -0.138767 0
+0.024030 -0.127659 0
-0.007339 -0.143971 0
-0.029484 -0.144031 0
+0.032918 -0.108013 0
+0.031348 -0.093417 0
-0.014668 -0.116690 0
+0.000000 +0.000000 0
+0.276672 +0.134669 0
+0.255426 +0.130945 0
+0.230875 +0.112377 0
+0.249248 +0.114702 0
+0.243370 +0.118459 0
+0.207922 +0.111448 0
+0.171206 +0.083334 0
+0.198359 +0.086308 0
+0.000000 +0.000000 0
+0.000000 +0.000000 0
+0.000000 +0.000000 0
-0.114196 -0.008895 0
-0.069103 -0.002126 0
-0.116144 -0.023711 0
-0.157787 -0.123491 0
-0.146786 -0.104269 0
-0.098521 -0.079465 0
+0.000000 +0.000000 0
+0.000000 +0.000000 0
+0.000000 +0.000000 0
-0.251630 -0.119690 0
-0.244031 -0.117534 0
-0.253360 -0.118727 0
-0.274699 -0.129570 0
-0.264763 -0.123273 0
-0.278669 -0.133390 0
-0.278562 -0.139727 0
-0.280770 -0.138914 0
-0.269990 -0.137015 0
-0.254234 -0.126537 0
-0.257651 -0.130005 0
-0.245195 -0.120595 0
-0.176049 -0.081539 0
-0.173034 -0.082331 0
-0.186304 -0.083715 0
-0.226594 -0.098155 0
-0.213885 -0.091666 0
-0.237995 -0.108470 0
-0.237927 -0.127948 0
-0.244879 -0.126567 0
-0.225501 -0.122203 0
-0.179926 -0.091730 0
-0.192809 -0.100816 0
-0.174801 -0.086976 0
-0.203249 -0.098931 0
-0.217583 -0.105907 0
-0.187630 -0.091328 0
-0.226636 -0.101694 0
-0.238636 -0.108484 0
-0.213226 -0.094243 0
-0.263447 -0.128232 0
-0.270880 -0.131849 0
-0.254445 -0.123850 0
-0.234684 -0.122852 0
-0.245798 -0.127312 0
-0.222137 -0.117668 0
-0.041279 -0.020092 0
-0.095400 -0.046435 0
-0.010527 -0.005124 0
-0.073174 -0.021820 0
-0.127838 -0.049087 0
-0.031559 -0.005883 0
-0.158195 -0.077001 0
-0.194268 -0.094559 0
-0.125481 -0.061077 0
-0.086056 -0.055684 0
-0.140104 -0.081333 0
-0.040408 -0.029147 0
+0.000000 +0.000000 0
+0.000000 +0.000000 0
+0.000000 +0.000000 0
+0.076644 +0.082478 0
+0.043955 +0.047301 0
+0.088867 +0.095631 0
+0.030888 +0.079546 0
+0.069099 +0.100916 0
-0.027224 +0.024395 0
-0.008242 +0.142225 0
-0.016237 +0.136447 0
-0.000300 +0.144751 0
+0.010653 +0.158515 0
+0.008912 +0.152857 0
+0.012514 +0.160726 0
-0.003746 +0.156010 0
+0.005575 +0.159527 0
-0.013228 +0.148994 0
-0.024618 +0.139547 0
-0.023911 +0.140761 0
-0.024648 +0.135120 0
-0.007405 +0.099943 0
-0.018919 +0.096412 0
+0.003519 +0.107661 0
+0.032080 +0.136414 0
+0.024582 +0.127584 0
+0.033867 +0.143115 0
+0.003205 +0.131540 0
+0.018866 +0.140765 0
-0.015642 +0.120120 0
-0.047986 +0.094049 0
-0.044725 +0.099512 0
-0.041959 +0.093348 0
-0.028367 +0.111668 0
-0.026385 +0.119924 0
-0.030194 +0.102723 0
+0.011417 +0.132076 0
+0.009496 +0.138457 0
+0.013267 +0.124862 0
+0.022307 +0.153703 0
+0.018444 +0.157045 0
+0.026073 +0.149437 0
-0.028096 +0.125035 0
-0.025395 +0.132323 0
-0.030647 +0.116984 0
-0.032906 +0.021513 0
-0.034776 +0.051060 0
-0.021290 +0.005167 0
+0.019832 +0.045670 0
+0.019526 +0.077239 0
+0.013204 +0.020413 0
+0.068263 +0.110382 0
+0.049403 +0.122600 0
+0.081998 +0.102577 0
-0.063978 +0.024388 0
-0.047817 +0.063040 0
-0.079007 -0.011066 0
+0.000000 +0.000000 0
+0.000000 +0.000000 0
+0.000000 +0.000000 0
+0.005806 -0.107746 0
+0.006942 -0.064767 0
-0.009533 -0.111532 0
+0.079635 +0.039391 0
+0.029297 -0.022164 0
+0.097056 +0.077887 0
+0.150815 +0.011201 0
+0.152420 +0.018949 0
+0.145795 +0.002973 0
+0.150172 -0.004435 0
+0.145516 -0.005051 0
+0.151356 -0.003615 0
+0.164729 +0.017229 0
+0.158604 +0.007448 0
+0.167194 +0.026394 0
+0.165454 +0.030998 0
+0.167534 +0.033029 0
+0.159729 +0.028622 0
+0.106194 +0.006366 0
+0.112868 +0.017585 0
+0.104006 -0.004847 0
+0.105380 -0.032286 0
+0.103842 -0.026754 0
+0.110698 -0.028517 0
+0.138047 +0.020465 0
+0.128529 +0.001360 0
+0.145678 +0.036304 0
+0.139342 +0.048058 0
+0.146158 +0.050615 0
+0.131043 +0.039887 0
+0.137521 +0.028199 0
+0.144493 +0.027254 0
+0.129680 +0.028967 0
+0.121322 -0.011638 0
+0.129750 -0.008691 0
+0.112147 -0.014531 0
+0.135357 -0.009609 0
+0.142670 -0.006120 0
+0.127221 -0.013059 0
+0.158840 +0.041234 0
+0.162872 +0.038073 0
+0.153849 +0.044182 0
+0.045443 +0.024573 0
+0.078716 +0.028482 0
+0.019735 +0.015033 0
+0.027018 -0.027850 0
+0.058370 -0.025669 0
+0.008268 -0.019181 0
+0.034172 -0.056463 0
+0.072714 -0.036248 0
-0.001154 -0.075197 0
+0.107131 +0.078365 0
+0.122499 +0.062388 0
+0.097091 +0.090144 0
+0.000000 +0.000000 0
+0.000000 +0.000000 0
+0.000000 +0.000000 0
+0.000000 +0.000000 0
+0.000000 +0.000000 0
+0.000000 +0.000000 0
-0.109040 -0.163647 0
-0.070565 -0.102493 0
-0.090265 -0.150828 0
-0.092572 -0.250713 0
-0.091328 -0.252201 0
-0.091312 -0.243336 0
-0.099434 -0.254053 0
-0.094379 -0.244829 0
-0.102631 -0.257702 0
-0.110087 -0.278508 0
-0.108371 -0.270149 0
-0.108939 -0.280460 0
-0.099908 -0.273553 0
-0.103402 -0.277766 0
-0.094600 -0.263445 0
-0.062450 -0.175116 0
-0.063379 -0.184974 0
-0.063684 -0.172407 0
-0.072664 -0.180087 0
-0.068340 -0.174673 0
-0.080517 -0.193316 0
-0.103086 -0.239023 0
-0.098689 -0.226665 0
-0.100708 -0.245327 0
-0.073228 -0.224490 0
-0.082572 -0.236500 0
-0.068085 -0.211768 0
-0.076947 -0.224999 0
-0.082501 -0.237100 0
-0.070885 -0.211496 0
-0.077145 -0.202808 0
-0.082586 -0.217111 0
-0.071217 -0.187223 0
-0.098152 -0.235321 0
-0.101370 -0.246284 0
-0.094361 -0.222923 0
-0.099994 -0.262876 0
-0.102815 -0.270292 0
-0.096577 -0.253893 0
-0.013250 -0.071183 0
-0.034692 -0.125815 0
-0.002001 -0.030231 0
-0.015668 -0.041190 0
-0.036210 -0.095193 0
-0.003995 -0.010504 0
-0.047188 -0.087702 0
-0.067008 -0.141545 0
-0.025315 -0.041580 0
-0.060045 -0.157852 0
-0.073736 -0.193846 0
-0.047628 -0.125209 0
-0.029342 -0.078794 0
-0.062372 -0.068006 0
+0.006282 -0.064224 0
+0.034470 -0.028394 0
+0.039967 -0.032922 0
+0.019768 -0.016284 0
+0.000000 +0.000000 0
+0.000000 +0.000000 0
+0.000000 +0.000000 0
-0.166091 -0.232374 0
-0.162001 -0.225971 0
-0.166196 -0.233295 0
-0.151103 -0.231382 0
-0.158345 -0.232506 0
-0.140831 -0.225362 0
-0.132500 -0.217823 0
-0.131857 -0.218815 0
-0.129749 -0.211673 0
-0.144774 -0.216704 0
-0.135580 -0.210890 0
-0.151007 -0.217853 0
-0.157600 -0.194117 0
-0.148179 -0.185897 0
-0.157958 -0.198168 0
-0.118148 -0.187488 0
-0.134899 -0.193396 0
-0.103984 -0.182196 0
-0.080702 -0.160081 0
-0.084359 -0.167692 0
-0.083364 -0.156196 0
-0.104080 -0.154208 0
-0.095399 -0.152384 0
-0.117529 -0.162827 0
-0.145516 -0.196305 0
-0.150341 -0.205945 0
-0.139820 -0.185476 0
-0.157601 -0.215422 0
-0.160476 -0.222794 0
-0.153795 -0.206760 0
-0.111057 -0.196901 0
-0.119797 -0.206378 0
-0.101597 -0.186197 0
-0.106706 -0.178458 0
-0.115457 -0.190033 0
-0.097279 -0.165755 0
-0.067946 -0.070602 0
-0.098250 -0.115809 0
-0.035790 -0.032951 0
-0.115822 -0.111906 0
-0.128403 -0.148814 0
-0.104580 -0.078294 0
-0.003771 -0.078991 0
-0.042609 -0.119293 0
+0.023492 -0.051231 0
-0.013795 -0.042732 0
-0.043713 -0.089012 0
+0.000146 -0.013915 0
+0.076644 +0.082478 0
+0.088867 +0.095631 0
+0.043955 +0.047301 0
+0.034470 -0.028394 0
+0.019768 -0.016284 0
+0.039967 -0.032922 0
+0.108725 +0.063362 0
+0.101346 +0.054614 0
+0.113564 +0.070572 0
+0.120114 +0.068347 0
+0.119158 +0.072878 0
+0.118528 +0.062561 0
+0.110887 +0.044092 0
+0.113982 +0.050612 0
+0.105266 +0.036359 0
+0.098977 +0.037736 0
+0.099285 +0.033031 0
+0.096413 +0.041644 0
+0.083532 +0.065371 0
+0.071279 +0.048519 0
+0.096188 +0.077072 0
+0.107926 +0.073937 0
+0.109146 +0.081103 0
+0.103984 +0.062177 0
+0.087942 +0.021401 0
+0.093188 +0.033796 0
+0.083026 +0.012435 0
+0.060460 +0.004716 0
+0.067942 +0.002818 0
+0.058371 +0.014587 0
+0.077750 +0.037844 0
+0.085009 +0.041378 0
+0.070003 +0.034074 0
+0.111476 +0.080250 0
+0.113901 +0.078412 0
+0.108390 +0.081629 0
+0.107960 +0.052549 0
+0.111622 +0.054331 0
+0.103618 +0.050436 0
+0.087212 +0.016460 0
+0.092455 +0.022031 0
+0.081436 +0.010768 0
-0.021605 -0.010516 0
+0.018047 +0.008784 0
-0.058106 -0.028283 0
+0.086373 +0.095464 0
+0.091257 +0.088124 0
+0.086616 +0.098773 0
+0.047315 +0.023031 0
+0.071213 +0.034662 0
+0.023876 +0.011622 0
+0.036497 -0.035658 0
+0.050453 -0.019147 0
+0.033760 -0.040180 0
-0.079048 -0.037848 0
-0.063304 -0.067238 0
-0.068444 -0.002669 0
-0.034470 +0.028394 0
-0.039967 +0.032922 0
-0.019768 +0.016284 0
+0.052259 +0.109876 0
+0.059205 +0.115350 0
+0.044029 +0.101828 0
+0.026577 +0.097376 0
+0.031032 +0.095502 0
+0.021583 +0.097037 0
+0.031686 +0.109334 0
+0.024292 +0.103061 0
+0.038138 +0.113088 0
+0.055993 +0.121166 0
+0.050114 +0.118917 0
+0.060891 +0.120876 0
+0.057720 +0.086634 0
+0.068356 +0.099998 0
+0.041608 +0.072960 0
-0.003066 +0.057046 0
+0.007602 +0.056408 0
-0.006059 +0.063776 0
+0.010847 +0.084908 0
+0.002062 +0.079129 0
+0.023198 +0.091450 0
+0.063497 +0.110535 0
+0.051641 +0.105295 0
+0.070879 +0.112626 0
+0.069671 +0.114687 0
+0.067414 +0.116706 0
+0.071532 +0.111990 0
+0.029511 +0.077581 0
+0.032266 +0.084825 0
+0.026570 +0.069851 0
+0.005743 +0.083570 0
+0.010910 +0.089203 0
+0.000518 +0.077424 0
+0.040977 +0.107726 0
+0.042367 +0.111379 0
+0.039329 +0.103393 0
+0.089022 +0.093283 0
+0.080646 +0.096865 0
+0.092473 +0.093949 0
-0.008201 -0.021558 0
+0.006850 +0.018008 0
-0.022055 -0.057980 0
-0.042385 +0.029321 0
-0.026858 +0.044538 0
-0.046783 +0.026167 0
+0.017959 +0.047213 0
+0.027029 +0.071058 0
+0.009062 +0.023824 0
+0.000000 +0.000000 0
+0.000000 +0.000000 0
+0.000000 +0.000000 0
-0.034470 +0.028394 0
-0.019768 +0.016284 0
-0.039967 +0.032922 0
-0.222558 -0.185860 0
-0.223513 -0.186080 0
-0.216360 -0.181193 0
-0.208894 -0.163885 0
-0.209274 -0.169855 0
-0.203994 -0.154534 0
-0.211702 -0.152581 0
-0.205594 -0.149197 0
-0.212832 -0.152112 0
-0.223504 -0.171742 0
-0.218532 -0.161356 0
-0.223726 -0.178649 0
-0.183412 -0.172854 0
-0.187629 -0.173726 0
-0.176010 -0.162971 0
-0.148509 -0.117609 0
-0.155796 -0.131305 0
-0.147742 -0.109266 0
-0.157797 -0.096574 0
-0.153354 -0.098542 0
-0.165324 -0.100998 0
-0.181674 -0.135158 0
-0.177986 -0.121238 0
-0.185668 -0.151574 0
-0.205840 -0.175685 0
-0.213219 -0.179347 0
-0.197227 -0.170983 0
-0.187321 -0.161868 0
-0.196828 -0.167651 0
-0.176678 -0.155115 0
-0.173689 -0.123281 0
-0.184712 -0.132985 0
-0.161568 -0.112797 0
-0.192526 -0.129792 0
-0.201341 -0.139206 0
-0.182515 -0.119542 0
-0.102418 -0.122948 0
-0.139600 -0.139591 0
-0.068528 -0.107992 0
-0.065297 -0.072784 0
-0.108862 -0.107069 0
-0.029933 -0.037776 0
-0.043152 -0.018550 0
-0.087896 -0.052616 0
-0.014668 -0.001712 0
-0.082653 -0.014012 0
-0.119920 -0.055609 0
-0.057051 +0.015116 0
+0.079048 +0.037848 0
+0.068444 +0.002669 0
+0.063304 +0.067238 0
+0.109040 +0.163647 0
+0.090265 +0.150828 0
+0.070565 +0.102493 0
+0.000000 +0.000000 0
+0.000000 +0.000000 0
+0.000000 +0.000000 0
+0.211702 +0.152581 0
+0.205594 +0.149197 0
+0.212832 +0.152112 0
+0.223504 +0.171742 0
+0.218532 +0.161356 0
+0.223726 +0.178649 0
+0.222558 +0.185860 0
+0.223513 +0.186080 0
+0.216360 +0.181193 0
+0.208894 +0.163885 0
+0.209274 +0.169855 0
+0.203994 +0.154534 0
+0.157797 +0.096574 0
+0.153354 +0.098542 0
+0.165324 +0.100998 0
+0.181674 +0.135158 0
+0.177986 +0.121238 0
+0.185668 +0.151574 0
+0.183412 +0.172854 0
+0.187629 +0.173726 0
+0.176010 +0.162971 0
+0.148509 +0.117609 0
+0.155796 +0.131305 0
+0.147742 +0.109266 0
+0.173689 +0.123281 0
+0.184712 +0.132985 0
+0.161568 +0.112797 0
+0.192526 +0.129792 0
+0.201341 +0.139206 0
+0.182515 +0.119542 0
+0.205840 +0.175685 0
+0.213219 +0.179347 0
+0.197227 +0.170983 0
+0.187321 +0.161868 0
+0.196828 +0.167651 0
+0.176678 +0.155115 0
+0.043152 +0.018550 0
+0.087896 +0.052616 0
+0.014668 +0.001712 0
+0.082653 +0.014012 0
+0.119920 +0.055609 0
+0.057051 -0.015116 0
+0.102418 +0.122948 0
+0.139600 +0.139591 0
+0.068528 +0.107992 0
+0.065297 +0.072784 0
+0.108862 +0.107069 0
+0.029933 +0.037776 0
-0.076644 -0.082478 0
-0.043955 -0.047301 0
-0.088867 -0.095631 0
-0.079635 -0.039391 0
-0.097056 -0.077887 0
-0.029297 +0.022164 0
-0.031686 -0.109334 0
-0.024292 -0.103061 0
-0.038138 -0.113088 0
-0.055993 -0.121166 0
-0.050114 -0.118917 0
-0.060891 -0.120876 0
-0.052259 -0.109876 0
-0.059205 -0.115350 0
-0.044029 -0.101828 0
-0.026577 -0.097376 0
-0.031032 -0.095502 0
-0.021583 -0.097037 0
-0.010847 -0.084908 0
-0.002062 -0.079129 0
-0.023198 -0.091450 0
-0.063497 -0.110535 0
-0.051641 -0.105295 0
-0.070879 -0.112626 0
-0.057720 -0.086634 0
-0.068356 -0.099998 0
-0.041608 -0.072960 0
+0.003066 -0.057046 0
-0.007602 -0.056408 0
+0.006059 -0.063776 0
-0.005743 -0.083570 0
-0.010910 -0.089203 0
-0.000518 -0.077424 0
-0.040977 -0.107726 0
-0.042367 -0.111379 0
-0.039329 -0.103393 0
-0.069671 -0.114687 0
-0.067414 -0.116706 0
-0.071532 -0.111990 0
-0.029511 -0.077581 0
-0.032266 -0.084825 0
-0.026570 -0.069851 0
+0.042385 -0.029321 0
+0.026858 -0.044538 0
+0.046783 -0.026167 0
-0.017959 -0.047213 0
-0.027029 -0.071058 0
-0.009062 -0.023824 0
-0.089022 -0.093283 0
-0.080646 -0.096865 0
-0.092473 -0.093949 0
+0.008201 +0.021558 0
-0.006850 -0.018008 0
+0.022055 +0.057980 0
+0.029342 +0.078794 0
-0.006282 +0.064224 0
+0.062372 +0.068006 0
-0.030888 -0.079546 0
+0.027224 -0.024395 0
-0.069099 -0.100916 0
-0.110887 -0.044092 0
-0.113982 -0.050612 0
-0.105266 -0.036359 0
-0.098977 -0.037736 0
-0.099285 -0.033031 0
-0.096413 -0.041644 0
-0.108725 -0.063362 0
-0.101346 -0.054614 0
-0.113564 -0.070572 0
-0.120114 -0.068347 0
-0.119158 -0.072878 0
-0.118528 -0.062561 0
-0.087942 -0.021401 0
-0.093188 -0.033796 0
-0.083026 -0.012435 0
-0.060460 -0.004716 0
-0.067942 -0.002818 0
-0.058371 -0.014587 0
-0.083532 -0.065371 0
-0.071279 -0.048519 0
-0.096188 -0.077072 0
-0.107926 -0.073937 0
-0.109146 -0.081103 0
-0.103984 -0.062177 0
-0.107960 -0.052549 0
-0.111622 -0.054331 0
-0.103618 -0.050436 0
-0.087212 -0.016460 0
-0.092455 -0.022031 0
-0.081436 -0.010768 0
-0.077750 -0.037844 0
-0.085009 -0.041378 0
-0.070003 -0.034074 0
-0.111476 -0.080250 0
-0.113901 -0.078412 0
-0.108390 -0.081629 0
-0.047315 -0.023031 0
-0.071213 -0.034662 0
-0.023876 -0.011622 0
-0.036497 +0.035658 0
-0.050453 +0.019147 0
-0.033760 +0.040180 0
+0.021605 +0.010516 0
-0.018047 -0.008784 0
+0.058106 +0.028283 0
-0.086373 -0.095464 0
-0.091257 -0.088124 0
-0.086616 -0.098773 0
+0.000000 +0.000000 0
+0.000000 +0.000000 0
+0.000000 +0.000000 0
+0.157787 +0.123491 0
+0.098521 +0.079465 0
+0.146786 +0.104269 0
+0.132500 +0.217823 0
+0.131857 +0.218815 0
+0.129749 +0.211673 0
+0.144774 +0.216704 0
+0.135580 +0.210890 0
+0.151007 +0.217853 0
+0.166091 +0.232374 0
+0.162001 +0.225971 0
+0.166196 +0.233295 0
+0.151103 +0.231382 0
+0.158345 +0.232506 0
+0.140831 +0.225362 0
+0.080702 +0.160081 0
+0.084359 +0.167692 0
+0.083364 +0.156196 0
+0.104080 +0.154208 0
+0.095399 +0.152384 0
+0.117529 +0.162827 0
+0.157600 +0.194117 0
+0.148179 +0.185897 0
+0.157958 +0.198168 0
+0.118148 +0.187488 0
+0.134899 +0.193396 0
+0.103984 +0.182196 0
+0.111057 +0.196901 0
+0.119797 +0.206378 0
+0.101597 +0.186197 0
+0.106706 +0.178458 0
+0.115457 +0.190033 0
+0.097279 +0.165755 0
+0.145516 +0.196305 0
+0.150341 +0.205945 0
+0.139820 +0.185476 0
+0.157601 +0.215422 0
+0.160476 +0.222794 0
+0.153795 +0.206760 0
+0.003771 +0.078991 0
+0.042609 +0.119293 0
-0.023492 +0.051231 0
+0.013795 +0.042732 0
+0.043713 +0.089012 0
-0.000146 +0.013915 0
+0.067946 +0.070602 0
+0.098250 +0.115809 0
+0.035790 +0.032951 0
+0.115822 +0.111906 0
+0.128403 +0.148814 0
+0.104580 +0.078294 0
-0.005806 +0.107746 0
+0.009533 +0.111532 0
-0.006942 +0.064767 0
+0.000000 +0.000000 0
+0.000000 +0.000000 0
+0.000000 +0.000000 0
+0.000000 +0.000000 0
+0.000000 +0.000000 0
+0.000000 +0.000000 0
+0.110087 +0.278508 0
+0.108371 +0.270149 0
+0.108939 +0.280460 0
+0.099908 +0.273553 0
+0.103402 +0.277766 0
+0.094600 +0.263445 0
+0.092572 +0.250713 0
+0.091328 +0.252201 0
+0.091312 +0.243336 0
+0.099434 +0.254053 0
+0.094379 +0.244829 0
+0.102631 +0.257702 0
+0.103086 +0.239023 0
+0.098689 +0.226665 0
+0.100708 +0.245327 0
+0.073228 +0.224490 0
+0.082572 +0.236500 0
+0.068085 +0.211768 0
+0.062450 +0.175116 0
+0.063379 +0.184974 0
+0.063684 +0.172407 0
+0.072664 +0.180087 0
+0.068340 +0.174673 0
+0.080517 +0.193316 0
+0.098152 +0.235321 0
+0.101370 +0.246284 0
+0.094361 +0.222923 0
+0.099994 +0.262876 0
+0.102815 +0.270292 0
+0.096577 +0.253893 0
+0.076947 +0.224999 0
+0.082501 +0.237100 0
+0.070885 +0.211496 0
+0.077145 +0.202808 0
+0.082586 +0.217111 0
+0.071217 +0.187223 0
+0.047188 +0.087702 0
+0.067008 +0.141545 0
+0.025315 +0.041580 0
+0.060045 +0.157852 0
+0.073736 +0.193846 0
+0.047628 +0.125209 0
+0.013250 +0.071183 0
+0.034692 +0.125815 0
+0.002001 +0.030231 0
+0.015668 +0.041190 0
+0.036210 +0.095193 0
+0.003995 +0.010504 0
-0.076644 -0.082478 0
-0.088867 -0.095631 0
-0.043955 -0.047301 0
+0.000000 +0.000000 0
+0.000000 +0.000000 0
+0.000000 +0.000000 0
-0.164729 -0.017229 0
-0.158604 -0.007448 0
-0.167194 -0.026394 0
-0.165454 -0.030998 0
-0.167534 -0.033029 0
-0.159729 -0.028622 0
-0.150815 -0.011201 0
-0.152420 -0.018949 0
-0.145795 -0.002973 0
-0.150172 +0.004435 0
-0.145516 +0.005051 0
-0.151356 +0.003615 0
-0.138047 -0.020465 0
-0.128529 -0.001360 0
-0.145678 -0.036304 0
-0.139342 -0.048058 0
-0.146158 -0.050615 0
-0.131043 -0.039887 0
-0.106194 -0.006366 0
-0.112868 -0.017585 0
-0.104006 +0.004847 0
-0.105380 +0.032286 0