# vtk DataFile Version 2.0
MyTitle
ASCII
DATASET UNSTRUCTURED_GRID
POINTS 1761 double
0.000000 0.000000 0.000000
1.000000 0.000000 0.000000
1.000000 1.000000 0.000000
0.000000 1.000000 0.000000
0.420000 0.420000 0.000000
0.580000 0.420000 0.000000
0.580000 0.580000 0.000000
0.420000 0.580000 0.000000
0.358579 0.358579 0.000000
0.641421 0.358579 0.000000
0.641421 0.641421 0.000000
0.358579 0.641421 0.000000
2.000000 0.000000 0.000000
2.000000 1.000000 0.000000
1.420000 0.420000 0.000000
1.580000 0.420000 0.000000
1.580000 0.580000 0.000000
1.420000 0.580000 0.000000
1.358579 0.358579 0.000000
1.641421 0.358579 0.000000
1.641421 0.641421 0.000000
1.358579 0.641421 0.000000
3.000000 0.000000 0.000000
3.000000 1.000000 0.000000
2.420000 0.420000 0.000000
2.580000 0.420000 0.000000
2.580000 0.580000 0.000000
2.420000 0.580000 0.000000
2.358579 0.358579 0.000000
2.641421 0.358579 0.000000
2.641421 0.641421 0.000000
2.358579 0.641421 0.000000
4.000000 0.000000 0.000000
4.000000 1.000000 0.000000
3.420000 0.420000 0.000000
3.580000 0.420000 0.000000
3.580000 0.580000 0.000000
3.420000 0.580000 0.000000
3.358579 0.358579 0.000000
3.641421 0.358579 0.000000
3.641421 0.641421 0.000000
3.358579 0.641421 0.000000
1.000000 2.000000 0.000000
0.000000 2.000000 0.000000
0.420000 1.420000 0.000000
0.580000 1.420000 0.000000
0.580000 1.580000 0.000000
0.420000 1.580000 0.000000
0.358579 1.358579 0.000000
0.641421 1.358579 0.000000
0.641421 1.641421 0.000000
0.358579 1.641421 0.000000
2.000000 2.000000 0.000000
1.420000 1.420000 0.000000
1.580000 1.420000 0.000000
1.580000 1.580000 0.000000
1.420000 1.580000 0.000000
1.358579 1.358579 0.000000
1.641421 1.358579 0.000000
1.641421 1.641421 0.000000
1.358579 1.641421 0.000000
3.000000 2.000000 0.000000
2.420000 1.420000 0.000000
2.580000 1.420000 0.000000
2.580000 1.580000 0.000000
2.420000 1.580000 0.000000
2.358579 1.358579 0.000000
2.641421 1.358579 0.000000
2.641421 1.641421 0.000000
2.358579 1.641421 0.000000
4.000000 2.000000 0.000000
3.420000 1.420000 0.000000
3.580000 1.420000 0.000000
3.580000 1.580000 0.000000
3.420000 1.580000 0.000000
3.358579 1.358579 0.000000
3.641421 1.358579 0.000000
3.641421 1.641421 0.000000
3.358579 1.641421 0.000000
1.000000 3.000000 0.000000
0.000000 3.000000 0.000000
0.420000 2.420000 0.000000
0.580000 2.420000 0.000000
0.580000 2.580000 0.000000
0.420000 2.580000 0.000000
0.358579 2.358579 0.000000
0.641421 2.358579 0.000000
0.641421 2.641421 0.000000
0.358579 2.641421 0.000000
2.000000 3.000000 0.000000
1.420000 2.420000 0.000000
1.580000 2.420000 0.000000
1.580000 2.580000 0.000000
1.420000 2.580000 0.000000
1.358579 2.358579 0.000000
1.641421 2.358579 0.000000
1.641421 2.641421 0.000000
1.358579 2.641421 0.000000
3.000000 3.000000 0.000000
2.420000 2.420000 0.000000
2.580000 2.420000 0.000000
2.580000 2.580000 0.000000
2.420000 2.580000 0.000000
2.358579 2.358579 0.000000
2.641421 2.358579 0.000000
2.641421 2.641421 0.000000
2.358579 2.641421 0.000000
4.000000 3.000000 0.000000
3.420000 2.420000 0.000000
3.580000 2.420000 0.000000
3.580000 2.580000 0.000000
3.420000 2.580000 0.000000
3.358579 2.358579 0.000000
3.641421 2.358579 0.000000
3.641421 2.641421 0.000000
3.358579 2.641421 0.000000
1.000000 4.000000 0.000000
0.000000 4.000000 0.000000
0.420000 3.420000 0.000000
0.580000 3.420000 0.000000
0.580000 3.580000 0.000000
0.420000 3.580000 0.000000
0.358579 3.358579 0.000000
0.641421 3.358579 0.000000
0.641421 3.641421 0.000000
0.358579 3.641421 0.000000
2.000000 4.000000 0.000000
1.420000 3.420000 0.000000
1.580000 3.420000 0.000000
1.580000 3.580000 0.000000
1.420000 3.580000 0.000000
1.358579 3.358579 0.000000
1.641421 3.358579 0.000000
1.641421 3.641421 0.000000
1.358579 3.641421 0.000000
3.000000 4.000000 0.000000
2.420000 3.420000 0.000000
2.580000 3.420000 0.000000
2.580000 3.580000 0.000000
2.420000 3.580000 0.000000
2.358579 3.358579 0.000000
2.641421 3.358579 0.000000
2.641421 3.641421 0.000000
2.358579 3.641421 0.000000
4.000000 4.000000 0.000000
3.420000 3.420000 0.000000
3.580000 3.420000 0.000000
3.580000 3.580000 0.000000
3.420000 3.580000 0.000000
3.358579 3.358579 0.000000
3.641421 3.358579 0.000000
3.641421 3.641421 0.000000
3.358579 3.641421 0.000000
0.500000 0.000000 0.000000
0.250000 0.000000 0.000000
0.750000 0.000000 0.000000
1.000000 0.500000 0.000000
1.000000 0.250000 0.000000
1.000000 0.750000 0.000000
0.500000 1.000000 0.000000
0.750000 1.000000 0.000000
0.250000 1.000000 0.000000
0.000000 0.500000 0.000000
0.000000 0.750000 0.000000
0.000000 0.250000 0.000000
0.500000 0.420000 0.000000
0.460000 0.420000 0.000000
0.540000 0.420000 0.000000
0.580000 0.500000 0.000000
0.580000 0.460000 0.000000
0.580000 0.540000 0.000000
0.500000 0.580000 0.000000
0.540000 0.580000 0.000000
0.460000 0.580000 0.000000
0.420000 0.500000 0.000000
0.420000 0.540000 0.000000
0.420000 0.460000 0.000000
0.500000 0.300001 0.000000
0.423464 0.315225 0.000000
0.576536 0.315225 0.000000
0.699999 0.500000 0.000000
0.684775 0.423464 0.000000
0.684775 0.576536 0.000000
0.500000 0.699999 0.000000
0.576536 0.684775 0.000000
0.423464 0.684775 0.000000
0.300001 0.500000 0.000000
0.315225 0.576536 0.000000
0.315225 0.423464 0.000000
0.389290 0.389290 0.000000
0.404645 0.404645 0.000000
0.373934 0.373934 0.000000
0.610710 0.389290 0.000000
0.595355 0.404645 0.000000
0.626066 0.373934 0.000000
0.610710 0.610710 0.000000
0.595355 0.595355 0.000000
0.626066 0.626066 0.000000
0.389290 0.610710 0.000000
0.404645 0.595355 0.000000
0.373934 0.626066 0.000000
0.179290 0.179290 0.000000
0.268934 0.268934 0.000000
0.089645 0.089645 0.000000
0.820710 0.179290 0.000000
0.731066 0.268934 0.000000
0.910355 0.089645 0.000000
0.820710 0.820710 0.000000
0.731066 0.731066 0.000000
0.910355 0.910355 0.000000
0.179290 0.820710 0.000000
0.268934 0.731066 0.000000
0.089645 0.910355 0.000000
1.500000 0.000000 0.000000
1.250000 0.000000 0.000000
1.750000 0.000000 0.000000
2.000000 0.500000 0.000000
2.000000 0.250000 0.000000
2.000000 0.750000 0.000000
1.500000 1.000000 0.000000
1.750000 1.000000 0.000000
1.250000 1.000000 0.000000
1.500000 0.420000 0.000000
1.460000 0.420000 0.000000
1.540000 0.420000 0.000000
1.580000 0.500000 0.000000
1.580000 0.460000 0.000000
1.580000 0.540000 0.000000
1.500000 0.580000 0.000000
1.540000 0.580000 0.000000
1.460000 0.580000 0.000000
1.420000 0.500000 0.000000
1.420000 0.540000 0.000000
1.420000 0.460000 0.000000
1.500000 0.300001 0.000000
1.423464 0.315225 0.000000
1.576536 0.315225 0.000000
1.699999 0.500000 0.000000
1.684775 0.423464 0.000000
1.684775 0.576536 0.000000
1.500000 0.699999 0.000000
1.576536 0.684775 0.000000
1.423464 0.684775 0.000000
1.300001 0.500000 0.000000
1.315225 0.576536 0.000000
1.315225 0.423464 0.000000
1.389290 0.389290 0.000000
1.404645 0.404645 0.000000
1.373934 0.373934 0.000000
1.610710 0.389290 0.000000
1.595355 0.404645 0.000000
1.626066 0.373934 0.000000
1.610710 0.610710 0.000000
1.595355 0.595355 0.000000
1.626066 0.626066 0.000000
1.389290 0.610710 0.000000
1.404645 0.595355 0.000000
1.373934 0.626066 0.000000
1.179290 0.179290 0.000000
1.268934 0.268934 0.000000
1.089645 0.089645 0.000000
1.820710 0.179290 0.000000
1.731066 0.268934 0.000000
1.910355 0.089645 0.000000
1.820710 0.820710 0.000000
1.731066 0.731066 0.000000
1.910355 0.910355 0.000000
1.179290 0.820710 0.000000
1.268934 0.731066 0.000000
1.089645 0.910355 0.000000
2.500000 0.000000 0.000000
2.250000 0.000000 0.000000
2.750000 0.000000 0.000000
3.000000 0.500000 0.000000
3.000000 0.250000 0.000000
3.000000 0.750000 0.000000
2.500000 1.000000 0.000000
2.750000 1.000000 0.000000
2.250000 1.000000 0.000000
2.500000 0.420000 0.000000
2.460000 0.420000 0.000000
2.540000 0.420000 0.000000
2.580000 0.500000 0.000000
2.580000 0.460000 0.000000
2.580000 0.540000 0.000000
2.500000 0.580000 0.000000
2.540000 0.580000 0.000000
2.460000 0.580000 0.000000
2.420000 0.500000 0.000000
2.420000 0.540000 0.000000
2.420000 0.460000 0.000000
2.500000 0.300001 0.000000
2.423464 0.315225 0.000000
2.576536 0.315225 0.000000
2.699999 0.500000 0.000000
2.684775 0.423464 0.000000
2.684775 0.576536 0.000000
2.500000 0.699999 0.000000
2.576536 0.684775 0.000000
2.423464 0.684775 0.000000
2.300001 0.500000 0.000000
2.315225 0.576536 0.000000
2.315225 0.423464 0.000000
2.389289 0.389289 0.000000
2.404645 0.404645 0.000000
2.373934 0.373934 0.000000
2.610711 0.389289 0.000000
2.595355 0.404645 0.000000
2.626066 0.373934 0.000000
2.610711 0.610711 0.000000
2.595355 0.595355 0.000000
2.626066 0.626066 0.000000
2.389289 0.610711 0.000000
2.404645 0.595355 0.000000
2.373934 0.626066 0.000000
2.179290 0.179290 0.000000
2.268934 0.268934 0.000000
2.089645 0.089645 0.000000
2.820710 0.179290 0.000000
2.731066 0.268934 0.000000
2.910355 0.089645 0.000000
2.820710 0.820710 0.000000
2.731066 0.731066 0.000000
2.910355 0.910355 0.000000
2.179290 0.820710 0.000000
2.268934 0.731066 0.000000
2.089645 0.910355 0.000000
3.500000 0.000000 0.000000
3.250000 0.000000 0.000000
3.750000 0.000000 0.000000
4.000000 0.500000 0.000000
4.000000 0.250000 0.000000
4.000000 0.750000 0.000000
3.500000 1.000000 0.000000
3.750000 1.000000 0.000000
3.250000 1.000000 0.000000
3.500000 0.420000 0.000000
3.460000 0.420000 0.000000
3.540000 0.420000 0.000000
3.580000 0.500000 0.000000
3.580000 0.460000 0.000000
3.580000 0.540000 0.000000
3.500000 0.580000 0.000000
3.540000 0.580000 0.000000
3.460000 0.580000 0.000000
3.420000 0.500000 0.000000
3.420000 0.540000 0.000000
3.420000 0.460000 0.000000
3.500000 0.300001 0.000000
3.423464 0.315225 0.000000
3.576536 0.315225 0.000000
3.699999 0.500000 0.000000
3.684775 0.423464 0.000000
3.684775 0.576536 0.000000
3.500000 0.699999 0.000000
3.576536 0.684775 0.000000
3.423464 0.684775 0.000000
3.300001 0.500000 0.000000
3.315225 0.576536 0.000000
3.315225 0.423464 0.000000
3.389289 0.389289 0.000000
3.404645 0.404645 0.000000
3.373934 0.373934 0.000000
3.610711 0.389289 0.000000
3.595355 0.404645 0.000000
3.626066 0.373934 0.000000
3.610711 0.610711 0.000000
[...]
POINT_DATA 1761
VECTORS sol double
+0.000000 +0.000000 0
+0.000000 +0.000000 0
-0.122358 +0.000791 0
+0.000000 +0.000000 0
-0.168408 +0.001089 0
-0.192859 +0.004889 0
-0.218926 +0.001416 0
-0.190786 -0.002407 0
-0.124490 +0.000805 0
-0.161270 +0.006762 0
-0.205551 +0.001330 0
-0.158014 -0.004697 0
+0.000000 +0.000000 0
-0.016273 +0.057269 0
-0.215257 +0.083711 0
-0.209509 +0.090971 0
-0.219903 +0.100059 0
-0.228849 +0.091097 0
-0.177827 +0.065029 0
-0.170205 +0.075683 0
-0.185352 +0.091510 0
-0.202300 +0.075891 0
+0.000000 +0.000000 0
-0.122358 +0.000791 0
-0.209509 +0.090971 0
-0.215257 +0.083711 0
-0.228849 +0.091097 0
-0.219903 +0.100059 0
-0.170205 +0.075683 0
-0.177827 +0.065029 0
-0.202300 +0.075891 0
-0.185352 +0.091510 0
+0.000000 +0.000000 0
+0.000000 +0.000000 0
-0.192859 +0.004889 0
-0.168408 +0.001089 0
-0.190786 -0.002407 0
-0.218926 +0.001416 0
-0.161270 +0.006762 0
-0.124490 +0.000805 0
-0.158014 -0.004697 0
-0.205551 +0.001330 0
+0.016273 -0.057269 0
+0.000000 +0.000000 0
-0.168388 -0.081229 0
-0.177825 -0.088466 0
-0.163743 -0.097578 0
-0.158485 -0.088591 0
-0.141457 -0.062963 0
-0.159836 -0.073548 0
-0.133933 -0.089444 0
-0.127741 -0.073756 0
+0.244715 -0.001583 0
+0.149067 -0.000964 0
+0.188214 +0.011459 0
+0.238267 -0.001541 0
+0.195432 -0.013941 0
+0.092395 -0.000598 0
+0.153746 +0.019719 0
+0.237645 -0.001537 0
+0.165539 -0.021784 0
+0.016273 -0.057269 0
+0.188214 +0.011459 0
+0.149067 -0.000964 0
+0.195432 -0.013941 0
+0.238267 -0.001541 0
+0.153746 +0.019719 0
+0.092395 -0.000598 0
+0.165539 -0.021784 0
+0.237645 -0.001537 0
+0.000000 +0.000000 0
-0.177825 -0.088466 0
-0.168388 -0.081229 0
-0.158485 -0.088591 0
-0.163743 -0.097578 0
-0.159836 -0.073548 0
-0.141457 -0.062963 0
-0.127741 -0.073756 0
-0.133933 -0.089444 0
-0.122358 +0.000791 0
+0.000000 +0.000000 0
-0.158485 -0.088591 0
-0.163743 -0.097578 0
-0.177825 -0.088466 0
-0.168388 -0.081229 0
-0.127741 -0.073756 0
-0.133933 -0.089444 0
-0.159836 -0.073548 0
-0.141457 -0.062963 0
-0.016273 +0.057269 0
+0.195432 -0.013941 0
+0.238267 -0.001541 0
+0.188214 +0.011459 0
+0.149067 -0.000964 0
+0.165539 -0.021784 0
+0.237645 -0.001537 0
+0.153746 +0.019719 0
+0.092395 -0.000598 0
-0.122358 +0.000791 0
+0.238267 -0.001541 0
+0.195432 -0.013941 0
+0.149067 -0.000964 0
+0.188214 +0.011459 0
+0.237645 -0.001537 0
+0.165539 -0.021784 0
+0.092395 -0.000598 0
+0.153746 +0.019719 0
+0.000000 +0.000000 0
-0.163743 -0.097578 0
-0.158485 -0.088591 0
-0.168388 -0.081229 0
-0.177825 -0.088466 0
-0.133933 -0.089444 0
-0.127741 -0.073756 0
-0.141457 -0.062963 0
-0.159836 -0.073548 0
+0.000000 +0.000000 0
+0.000000 +0.000000 0
-0.190786 -0.002407 0
-0.218926 +0.001416 0
-0.192859 +0.004889 0
-0.168408 +0.001089 0
-0.158014 -0.004697 0
-0.205551 +0.001330 0
-0.161270 +0.006762 0
-0.124490 +0.000805 0
+0.000000 +0.000000 0
-0.228849 +0.091097 0
-0.219903 +0.100059 0
-0.209509 +0.090971 0
-0.215257 +0.083711 0
-0.202300 +0.075891 0
-0.185352 +0.091510 0
-0.170205 +0.075683 0
-0.177827 +0.065029 0
+0.000000 +0.000000 0
-0.219903 +0.100059 0
-0.228849 +0.091097 0
-0.215257 +0.083711 0
-0.209509 +0.090971 0
-0.185352 +0.091510 0
-0.202300 +0.075891 0
-0.177827 +0.065029 0
-0.170205 +0.075683 0
+0.000000 +0.000000 0
-0.218926 +0.001416 0
-0.190786 -0.002407 0
-0.168408 +0.001089 0
-0.192859 +0.004889 0
-0.205551 +0.001330 0
-0.158014 -0.004697 0
-0.124490 +0.000805 0
-0.161270 +0.006762 0
+0.000000 +0.000000 0
+0.000000 +0.000000 0
+0.000000 +0.000000 0
-0.162150 +0.028194 0
-0.098817 +0.018851 0
-0.162208 +0.020536 0
-0.146695 -0.026197 0
-0.151113 -0.018509 0
-0.088448 -0.017640 0
+0.000000 +0.000000 0
+0.000000 +0.000000 0
+0.000000 +0.000000 0
-0.187544 +0.002733 0
-0.179606 +0.001839 0
-0.191980 +0.003756 0
-0.213784 +0.003667 0
-0.205184 +0.004410 0
-0.218371 +0.002660 0
-0.212483 -0.000910 0
-0.217661 +0.000161 0
-0.203429 -0.001767 0
-0.186679 -0.000312 0
-0.190549 -0.001281 0
-0.179221 +0.000482 0
-0.132758 +0.003140 0
-0.127351 +0.001859 0
-0.145257 +0.004794 0
-0.194723 +0.008130 0
-0.179777 +0.008161 0
-0.204006 +0.005504 0
-0.190812 -0.005636 0
-0.201624 -0.002880 0
-0.175792 -0.005861 0
-0.131459 -0.001431 0
-0.143062 -0.002929 0
-0.126762 -0.000215 0
-0.147689 +0.000955 0
-0.158325 +0.001024 0
-0.136254 +0.000881 0
-0.179043 +0.005930 0
-0.186441 +0.005439 0
-0.170729 +0.006408 0
-0.214616 +0.001388 0
-0.217331 +0.001406 0
-0.210855 +0.001364 0
-0.176326 -0.003632 0
-0.184031 -0.003043 0
-0.167709 -0.004219 0
-0.030159 +0.000195 0
-0.069623 +0.000450 0
-0.007692 +0.000050 0
-0.074967 +0.008366 0
-0.114536 +0.008194 0
-0.037500 +0.005684 0
-0.168244 +0.001088 0
-0.183674 +0.001188 0
-0.148772 +0.000962 0
-0.070480 -0.007426 0
-0.110293 -0.006740 0
-0.034402 -0.005219 0
+0.000000 +0.000000 0
+0.000000 +0.000000 0
+0.000000 +0.000000 0
-0.136747 +0.073028 0
-0.090417 +0.044328 0
-0.104258 +0.073863 0
-0.051023 +0.045328 0
-0.025861 +0.055145 0
-0.085602 +0.024810 0
-0.218934 +0.090351 0
-0.218742 +0.087748 0
-0.215805 +0.091429 0
-0.224804 +0.099507 0
-0.219592 +0.096191 0
-0.224883 +0.100794 0
-0.231051 +0.098783 0
-0.227085 +0.100239 0
-0.231634 +0.095700 0
-0.232165 +0.091201 0
-0.233047 +0.092110 0
-0.226145 +0.088365 0
-0.160096 +0.065036 0
-0.166587 +0.064291 0
-0.163027 +0.069439 0
-0.186507 +0.088982 0
-0.180366 +0.083189 0
-0.187948 +0.092113 0
-0.187039 +0.084397 0
-0.184854 +0.088949 0
-0.195310 +0.080137 0
-0.202526 +0.069899 0
-0.206677 +0.072870 0
-0.192243 +0.067600 0
-0.198685 +0.075055 0
-0.207498 +0.079542 0
-0.188850 +0.070180 0
-0.191750 +0.084251 0
-0.201083 +0.087840 0
-0.181463 +0.080230 0
-0.204869 +0.096818 0
-0.212935 +0.098678 0
-0.195752 +0.094471 0
-0.217818 +0.084420 0
-0.223846 +0.087987 0
-0.210657 +0.080419 0
-0.078979 +0.022482 0
-0.123796 +0.040781 0
-0.038523 +0.009284 0
-0.073572 +0.034451 0
-0.116481 +0.053272 0
-0.035769 +0.017027 0
-0.092856 +0.071320 0
-0.134721 +0.079228 0
-0.054188 +0.064412 0
-0.144176 +0.034908 0
-0.166718 +0.053597 0
-0.130258 +0.017638 0
+0.000000 +0.000000 0
+0.000000 +0.000000 0
+0.000000 +0.000000 0
-0.162150 +0.028194 0
-0.098817 +0.018851 0
-0.162208 +0.020536 0
-0.051023 +0.045328 0
-0.085602 +0.024810 0
-0.025861 +0.055145 0
-0.218934 +0.090351 0
-0.215805 +0.091429 0
-0.218742 +0.087748 0
-0.232165 +0.091201 0
-0.226145 +0.088365 0
-0.233047 +0.092110 0
-0.231051 +0.098783 0
-0.231634 +0.095700 0
-0.227085 +0.100239 0
-0.224804 +0.099507 0
-0.224883 +0.100794 0
-0.219592 +0.096191 0
-0.160096 +0.065036 0
-0.163027 +0.069439 0
-0.166587 +0.064291 0
-0.202526 +0.069899 0
-0.192243 +0.067600 0
-0.206677 +0.072870 0
-0.187039 +0.084397 0
-0.195310 +0.080137 0
-0.184854 +0.088949 0
-0.186507 +0.088982 0
-0.187948 +0.092113 0
-0.180366 +0.083189 0
-0.191750 +0.084251 0
-0.201083 +0.087840 0
-0.181463 +0.080230 0
-0.198685 +0.075055 0
-0.207498 +0.079542 0
-0.188850 +0.070180 0
-0.217818 +0.084420 0
-0.223846 +0.087987 0
-0.210657 +0.080419 0
-0.204869 +0.096818 0
-0.212935 +0.098678 0
-0.195752 +0.094471 0
-0.073572 +0.034451 0
-0.116481 +0.053272 0
-0.035769 +0.017027 0
-0.078979 +0.022482 0
-0.123796 +0.040781 0
-0.038523 +0.009284 0
-0.144176 +0.034908 0
-0.166718 +0.053597 0
-0.130258 +0.017638 0
-0.092856 +0.071320 0
-0.134721 +0.079228 0
-0.054188 +0.064412 0
+0.000000 +0.000000 0
+0.000000 +0.000000 0
+0.000000 +0.000000 0
+0.000000 +0.000000 0
+0.000000 +0.000000 0
+0.000000 +0.000000 0
-0.146695 -0.026197 0
-0.088448 -0.017640 0
-0.151113 -0.018509 0
-0.187544 +0.002733 0
-0.191980 +0.003756 0
-0.179606 +0.001839 0
-0.186679 -0.000312 0
-0.179221 +0.000482 0
-0.190549 -0.001281 0
-0.212483 -0.000910 0
-0.203429 -0.001767 0
-0.217661 +0.000161 0
-0.213784 +0.003667 0
-0.218371 +0.002660 0
-0.205184 +0.004410 0
-0.132758 +0.003140 0
-0.145257 +0.004794 0
-0.127351 +0.001859 0
-0.131459 -0.001431 0
-0.126762 -0.000215 0
-0.143062 -0.002929 0
-0.190812 -0.005636 0
-0.175792 -0.005861 0
-0.201624 -0.002880 0
-0.194723 +0.008130 0
-0.204006 +0.005504 0
-0.179777 +0.008161 0
-0.179043 +0.005930 0
-0.186441 +0.005439 0
-0.170729 +0.006408 0
-0.147689 +0.000955 0
-0.158325 +0.001024 0
-0.136254 +0.000881 0
-0.176326 -0.003632 0
-0.184031 -0.003043 0
-0.167709 -0.004219 0
-0.214616 +0.001388 0
-0.217331 +0.001406 0
-0.210855 +0.001364 0
-0.074967 +0.008366 0
-0.114536 +0.008194 0
-0.037500 +0.005684 0
-0.030159 +0.000195 0
-0.069623 +0.000450 0
-0.007692 +0.000050 0
-0.070480 -0.007426 0
-0.110293 -0.006740 0
-0.034402 -0.005219 0
-0.168244 +0.001088 0
-0.183674 +0.001188 0
-0.148772 +0.000962 0
-0.025403 -0.044834 0
-0.071791 -0.023792 0
+0.005441 -0.055012 0
-0.095672 -0.071525 0
-0.062587 -0.072784 0
-0.065512 -0.043320 0
+0.000000 +0.000000 0
+0.000000 +0.000000 0
+0.000000 +0.000000 0
-0.181094 -0.088528 0
-0.176667 -0.085759 0
-0.181462 -0.089429 0
-0.175659 -0.096152 0
-0.177999 -0.093050 0
-0.170850 -0.097665 0
-0.168976 -0.096960 0
-0.168323 -0.098250 0
-0.165633 -0.093699 0
-0.168298 -0.087846 0
-0.164544 -0.088968 0
-0.169587 -0.085236 0
-0.163474 -0.067531 0
-0.154462 -0.065358 0
-0.165949 -0.070459 0
-0.139675 -0.082284 0
-0.150402 -0.077901 0
-0.134891 -0.086881 0
-0.136531 -0.086893 0
-0.136195 -0.090016 0
-0.133666 -0.081158 0
-0.123656 -0.063200 0
-0.124092 -0.067581 0
-0.130596 -0.062369 0
-0.156684 -0.072756 0
-0.162974 -0.077145 0
-0.149588 -0.067991 0
-0.170555 -0.081908 0
-0.174574 -0.085410 0
-0.165646 -0.077984 0
-0.150500 -0.094519 0
-0.157537 -0.096281 0
-0.142685 -0.092281 0
-0.144487 -0.082076 0
-0.151811 -0.085557 0
-0.136452 -0.078173 0
-0.066469 -0.021541 0
-0.101033 -0.039326 0
-0.033379 -0.008819 0
-0.124832 -0.033168 0
-0.136816 -0.051633 0
-0.120695 -0.016015 0
-0.052591 -0.070379 0
-0.090108 -0.077773 0
-0.017714 -0.063947 0
-0.054228 -0.033624 0
-0.086579 -0.051958 0
-0.026206 -0.016626 0
+0.187553 +0.016639 0
+0.093376 +0.036161 0
+0.233999 +0.003256 0
+0.197718 -0.019131 0
+0.236715 -0.006301 0
+0.114309 -0.037505 0
+0.175427 +0.005699 0
+0.163778 +0.002432 0
+0.183636 +0.008736 0
+0.221145 +0.004639 0
+0.206446 +0.008019 0
+0.231826 +0.001422 0
+0.224601 -0.007522 0
+0.233489 -0.004432 0
+0.211772 -0.010724 0
+0.179318 -0.007994 0
+0.189286 -0.011148 0
+0.165766 -0.004563 0
+0.105815 +0.016221 0
+0.095068 +0.008839 0
+0.126990 +0.019864 0
+0.210742 +0.010954 0
+0.184072 +0.016351 0
+0.230317 +0.004816 0
+0.217755 -0.013726 0
+0.233907 -0.007819 0
+0.194059 -0.018797 0
+0.115440 -0.017652 0
+0.138767 -0.021583 0
+0.100451 -0.010104 0
+0.121620 -0.000787 0
+0.135562 -0.000877 0
+0.107059 -0.000693 0
+0.172859 +0.015833 0
+0.181004 +0.013697 0
+0.163826 +0.017883 0
+0.240685 -0.001557 0
+0.240095 -0.001553 0
+0.240050 -0.001553 0
+0.182510 -0.018131 0
+0.189469 -0.016093 0
+0.174611 -0.020072 0
-0.040444 +0.000262 0
+0.019386 -0.000125 0
-0.086797 +0.000561 0
+0.061090 +0.040471 0
+0.103612 +0.030253 0
+0.021835 +0.049444 0
+0.238848 -0.001545 0
+0.233911 -0.001513 0
+0.243261 -0.001574 0
+0.084357 -0.041412 0
+0.121218 -0.031707 0
+0.050067 -0.049909 0
-0.025403 -0.044834 0
-0.071791 -0.023792 0
+0.005441 -0.055012 0
+0.197718 -0.019131 0
+0.114309 -0.037505 0
+0.236715 -0.006301 0
+0.175427 +0.005699 0
+0.183636 +0.008736 0
+0.163778 +0.002432 0
+0.179318 -0.007994 0
+0.165766 -0.004563 0
+0.189286 -0.011148 0
+0.224601 -0.007522 0
+0.211772 -0.010724 0
+0.233489 -0.004432 0
+0.221145 +0.004639 0
+0.231826 +0.001422 0
+0.206446 +0.008019 0
+0.105815 +0.016221 0
+0.126990 +0.019864 0
+0.095068 +0.008839 0
+0.115440 -0.017652 0
+0.100451 -0.010104 0
+0.138767 -0.021583 0
+0.217755 -0.013726 0
+0.194059 -0.018797 0
+0.233907 -0.007819 0
+0.210742 +0.010954 0
+0.230317 +0.004816 0
+0.184072 +0.016351 0
+0.172859 +0.015833 0
+0.181004 +0.013697 0
+0.163826 +0.017883 0
+0.121620 -0.000787 0
+0.135562 -0.000877 0
+0.107059 -0.000693 0
+0.182510 -0.018131 0
+0.189469 -0.016093 0
+0.174611 -0.020072 0
+0.240685 -0.001557 0
+0.240095 -0.001553 0
+0.240050 -0.001553 0
+0.061090 +0.040471 0
+0.103612 +0.030253 0
+0.021835 +0.049444 0
-0.040444 +0.000262 0
+0.019386 -0.000125 0
-0.086797 +0.000561 0
+0.084357 -0.041412 0
+0.121218 -0.031707 0
+0.050067 -0.049909 0
+0.238848 -0.001545 0
+0.233911 -0.001513 0
+0.243261 -0.001574 0
+0.000000 +0.000000 0
+0.000000 +0.000000 0
+0.000000 +0.000000 0
-0.095672 -0.071525 0
-0.065512 -0.043320 0
-0.062587 -0.072784 0
-0.181094 -0.088528 0
-0.181462 -0.089429 0
-0.176667 -0.085759 0
-0.168298 -0.087846 0
-0.169587 -0.085236 0
-0.164544 -0.088968 0
-0.168976 -0.096960 0
-0.165633 -0.093699 0
-0.168323 -0.098250 0
-0.175659 -0.096152 0
-0.170850 -0.097665 0
-0.177999 -0.093050 0
-0.163474 -0.067531 0
-0.165949 -0.070459 0
-0.154462 -0.065358 0
-0.123656 -0.063200 0
-0.130596 -0.062369 0
-0.124092 -0.067581 0
-0.136531 -0.086893 0
-0.133666 -0.081158 0
-0.136195 -0.090016 0
-0.139675 -0.082284 0
-0.134891 -0.086881 0
-0.150402 -0.077901 0
-0.170555 -0.081908 0
-0.174574 -0.085410 0
-0.165646 -0.077984 0
-0.156684 -0.072756 0
-0.162974 -0.077145 0
-0.149588 -0.067991 0
-0.144487 -0.082076 0
-0.151811 -0.085557 0
-0.136452 -0.078173 0
-0.150500 -0.094519 0
-0.157537 -0.096281 0
-0.142685 -0.092281 0
-0.124832 -0.033168 0
-0.136816 -0.051633 0
-0.120695 -0.016015 0
-0.066469 -0.021541 0
-0.101033 -0.039326 0
-0.033379 -0.008819 0
-0.054228 -0.033624 0
-0.086579 -0.051958 0
-0.026206 -0.016626 0
-0.052591 -0.070379 0
-0.090108 -0.077773 0
-0.017714 -0.063947 0
-0.025403 -0.044834 0
+0.005441 -0.055012 0
-0.071791 -0.023792 0
-0.146695 -0.026197 0
-0.151113 -0.018509 0
-0.088448 -0.017640 0
+0.000000 +0.000000 0
+0.000000 +0.000000 0
+0.000000 +0.000000 0
-0.168976 -0.096960 0
-0.165633 -0.093699 0
-0.168323 -0.098250 0
-0.175659 -0.096152 0
-0.170850 -0.097665 0
-0.177999 -0.093050 0
-0.181094 -0.088528 0
-0.181462 -0.089429 0
-0.176667 -0.085759 0
-0.168298 -0.087846 0
-0.169587 -0.085236 0
-0.164544 -0.088968 0
-0.136531 -0.086893 0
-0.133666 -0.081158 0
-0.136195 -0.090016 0
-0.139675 -0.082284 0
-0.134891 -0.086881 0
-0.150402 -0.077901 0
-0.163474 -0.067531 0
-0.165949 -0.070459 0
-0.154462 -0.065358 0
-0.123656 -0.063200 0
-0.130596 -0.062369 0
-0.124092 -0.067581 0
-0.144487 -0.082076 0
-0.151811 -0.085557 0
-0.136452 -0.078173 0
-0.150500 -0.094519 0
-0.157537 -0.096281 0
-0.142685 -0.092281 0
-0.170555 -0.081908 0
-0.174574 -0.085410 0
-0.165646 -0.077984 0
-0.156684 -0.072756 0
-0.162974 -0.077145 0
-0.149588 -0.067991 0
-0.054228 -0.033624 0
-0.086579 -0.051958 0
-0.026206 -0.016626 0
-0.052591 -0.070379 0
-0.090108 -0.077773 0
-0.017714 -0.063947 0
-0.124832 -0.033168 0
-0.136816 -0.051633 0
-0.120695 -0.016015 0
-0.066469 -0.021541 0
-0.101033 -0.039326 0
-0.033379 -0.008819 0
+0.187553 +0.016639 0
+0.233999 +0.003256 0
+0.093376 +0.036161 0
-0.051023 +0.045328 0
-0.025861 +0.055145 0
-0.085602 +0.024810 0
+0.224601 -0.007522 0
+0.211772 -0.010724 0
+0.233489 -0.004432 0
+0.221145 +0.004639 0
+0.231826 +0.001422 0
+0.206446 +0.008019 0
+0.175427 +0.005699 0
+0.183636 +0.008736 0
+0.163778 +0.002432 0
+0.179318 -0.007994 0
+0.165766 -0.004563 0
+0.189286 -0.011148 0
+0.217755 -0.013726 0
+0.194059 -0.018797 0
+0.233907 -0.007819 0
+0.210742 +0.010954 0
+0.230317 +0.004816 0
+0.184072 +0.016351 0
+0.105815 +0.016221 0
+0.126990 +0.019864 0
+0.095068 +0.008839 0
+0.115440 -0.017652 0
+0.100451 -0.010104 0
+0.138767 -0.021583 0
+0.182510 -0.018131 0
+0.189469 -0.016093 0
+0.174611 -0.020072 0
+0.240685 -0.001557 0
+0.240095 -0.001553 0
+0.240050 -0.001553 0
+0.172859 +0.015833 0
+0.181004 +0.013697 0
+0.163826 +0.017883 0
+0.121620 -0.000787 0
+0.135562 -0.000877 0
+0.107059 -0.000693 0
+0.084357 -0.041412 0
+0.121218 -0.031707 0
+0.050067 -0.049909 0
+0.238848 -0.001545 0
+0.233911 -0.001513 0
+0.243261 -0.001574 0
+0.061090 +0.040471 0
+0.103612 +0.030253 0
+0.021835 +0.049444 0
-0.040444 +0.000262 0
+0.019386 -0.000125 0
-0.086797 +0.000561 0
-0.025403 -0.044834 0
+0.005441 -0.055012 0
-0.071791 -0.023792 0
-0.051023 +0.045328 0
-0.085602 +0.024810 0
-0.025861 +0.055145 0
+0.224601 -0.007522 0
+0.233489 -0.004432 0
+0.211772 -0.010724 0
+0.179318 -0.007994 0
+0.189286 -0.011148 0
+0.165766 -0.004563 0
+0.175427 +0.005699 0
+0.163778 +0.002432 0
+0.183636 +0.008736 0
+0.221145 +0.004639 0
+0.206446 +0.008019 0
+0.231826 +0.001422 0
+0.217755 -0.013726 0
+0.233907 -0.007819 0
+0.194059 -0.018797 0
+0.115440 -0.017652 0
+0.138767 -0.021583 0
+0.100451 -0.010104 0
+0.105815 +0.016221 0
+0.095068 +0.008839 0
+0.126990 +0.019864 0
+0.210742 +0.010954 0
+0.184072 +0.016351 0
+0.230317 +0.004816 0
+0.240685 -0.001557 0
+0.240095 -0.001553 0
+0.240050 -0.001553 0
+0.182510 -0.018131 0
+0.189469 -0.016093 0
+0.174611 -0.020072 0
+0.121620 -0.000787 0
+0.135562 -0.000877 0
+0.107059 -0.000693 0
+0.172859 +0.015833 0
+0.181004 +0.013697 0
+0.163826 +0.017883 0
+0.238848 -0.001545 0
+0.233911 -0.001513 0
+0.243261 -0.001574 0
+0.084357 -0.041412 0
+0.121218 -0.031707 0
+0.050067 -0.049909 0
-0.040444 +0.000262 0
+0.019386 -0.000125 0
-0.086797 +0.000561 0
+0.061090 +0.040471 0
+0.103612 +0.030253 0
+0.021835 +0.049444 0
+0.000000 +0.000000 0
+0.000000 +0.000000 0
+0.000000 +0.000000 0
-0.146695 -0.026197 0
-0.088448 -0.017640 0
-0.151113 -0.018509 0
-0.168976 -0.096960 0
-0.168323 -0.098250 0
-0.165633 -0.093699 0
-0.168298 -0.087846 0
-0.164544 -0.088968 0
-0.169587 -0.085236 0
-0.181094 -0.088528 0
-0.176667 -0.085759 0
-0.181462 -0.089429 0
-0.175659 -0.096152 0
-0.177999 -0.093050 0
-0.170850 -0.097665 0
-0.136531 -0.086893 0
-0.136195 -0.090016 0
-0.133666 -0.081158 0
-0.123656 -0.063200 0
-0.124092 -0.067581 0
-0.130596 -0.062369 0
-0.163474 -0.067531 0
-0.154462 -0.065358 0
-0.165949 -0.070459 0
-0.139675 -0.082284 0
-0.150402 -0.077901 0
-0.134891 -0.086881 0
-0.150500 -0.094519 0
-0.157537 -0.096281 0
-0.142685 -0.092281 0
-0.144487 -0.082076 0
-0.151811 -0.085557 0
-0.136452 -0.078173 0
-0.156684 -0.072756 0
-0.162974 -0.077145 0
-0.149588 -0.067991 0
-0.170555 -0.081908 0
-0.174574 -0.085410 0
-0.165646 -0.077984 0
-0.052591 -0.070379 0
-0.090108 -0.077773 0
-0.017714 -0.063947 0
-0.054228 -0.033624 0
-0.086579 -0.051958 0
-0.026206 -0.016626 0
-0.066469 -0.021541 0
-0.101033 -0.039326 0
-0.033379 -0.008819 0
-0.124832 -0.033168 0
-0.136816 -0.051633 0
-0.120695 -0.016015 0
-0.162150 +0.028194 0
-0.162208 +0.020536 0
-0.098817 +0.018851 0
+0.000000 +0.000000 0
+0.000000 +0.000000 0
+0.000000 +0.000000 0
+0.000000 +0.000000 0
+0.000000 +0.000000 0
+0.000000 +0.000000 0
-0.212483 -0.000910 0
-0.203429 -0.001767 0
-0.217661 +0.000161 0
-0.213784 +0.003667 0
-0.218371 +0.002660 0
-0.205184 +0.004410 0
-0.187544 +0.002733 0
-0.191980 +0.003756 0
-0.179606 +0.001839 0
-0.186679 -0.000312 0
-0.179221 +0.000482 0
-0.190549 -0.001281 0
-0.190812 -0.005636 0
-0.175792 -0.005861 0
-0.201624 -0.002880 0
-0.194723 +0.008130 0
-0.204006 +0.005504 0
-0.179777 +0.008161 0
-0.132758 +0.003140 0
-0.145257 +0.004794 0
-0.127351 +0.001859 0
-0.131459 -0.001431 0
-0.126762 -0.000215 0
-0.143062 -0.002929 0
-0.176326 -0.003632 0
-0.184031 -0.003043 0
-0.167709 -0.004219 0
-0.214616 +0.001388 0
-0.217331 +0.001406 0
-0.210855 +0.001364 0
-0.179043 +0.005930 0
-0.186441 +0.005439 0
-0.170729 +0.006408 0
-0.147689 +0.000955 0
-0.158325 +0.001024 0
-0.136254 +0.000881 0
-0.070480 -0.007426 0
-0.110293 -0.006740 0
-0.034402 -0.005219 0
-0.168244 +0.001088 0
-0.183674 +0.001188 0
-0.148772 +0.000962 0
-0.074967 +0.008366 0
-0.114536 +0.008194 0
-0.037500 +0.005684 0
-0.030159 +0.000195 0
-0.069623 +0.000450 0
-0.007692 +0.000050 0
-0.136747 +0.073028 0
-0.104258 +0.073863 0
-0.090417 +0.044328 0
+0.000000 +0.000000 0
+0.000000 +0.000000 0
+0.000000 +0.000000 0
-0.231051 +0.098783 0
-0.231634 +0.095700 0
-0.227085 +0.100239 0
-0.224804 +0.099507 0
-0.224883 +0.100794 0
-0.219592 +0.096191 0
-0.218934 +0.090351 0
-0.215805 +0.091429 0
-0.218742 +0.087748 0
-0.232165 +0.091201 0
-0.226145 +0.088365 0
-0.233047 +0.092110 0
-0.187039 +0.084397 0
-0.195310 +0.080137 0
-0.184854 +0.088949 0
-0.186507 +0.088982 0
-0.187948 +0.092113 0
-0.180366 +0.083189 0
-0.160096 +0.065036 0
-0.163027 +0.069439 0
-0.166587 +0.064291 0
-0.202526 +0.069899 0