# vtk DataFile Version 2.0
this shit
ASCII
DATASET POLYDATA
POINTS 145 double
0.000000 0.000000 0.000000
1.000000 0.000000 0.000000
1.000000 1.000000 0.000000
0.000000 1.000000 0.000000
0.125000 0.000000 0.000000
0.250000 0.000000 0.000000
0.375000 0.000000 0.000000
0.500000 0.000000 0.000000
0.625000 0.000000 0.000000
0.750000 0.000000 0.000000
0.875000 0.000000 0.000000
1.000000 0.125000 0.000000
1.000000 0.250000 0.000000
1.000000 0.375000 0.000000
1.000000 0.500000 0.000000
1.000000 0.625000 0.000000
1.000000 0.750000 0.000000
1.000000 0.875000 0.000000
0.875000 1.000000 0.000000
0.750000 1.000000 0.000000
0.625000 1.000000 0.000000
0.500000 1.000000 0.000000
0.375000 1.000000 0.000000
0.250000 1.000000 0.000000
0.125000 1.000000 0.000000
0.000000 0.875000 0.000000
0.000000 0.750000 0.000000
0.000000 0.625000 0.000000
0.000000 0.500000 0.000000
0.000000 0.375000 0.000000
0.000000 0.250000 0.000000
0.000000 0.125000 0.000000
0.498121 0.501743 0.000000
0.333984 0.336255 0.000000
0.663891 0.336070 0.000000
0.663579 0.665500 0.000000
0.334261 0.665042 0.000000
0.440111 0.443398 0.000000
0.498907 0.315735 0.000000
0.556749 0.443222 0.000000
0.396136 0.168645 0.000000
0.602999 0.168647 0.000000
0.191408 0.192273 0.000000
0.807731 0.192369 0.000000
0.556370 0.559381 0.000000
0.498587 0.685826 0.000000
0.439967 0.559259 0.000000
0.602720 0.832119 0.000000
0.396277 0.832034 0.000000
0.807728 0.808417 0.000000
0.191631 0.808144 0.000000
0.167346 0.603625 0.000000
0.167381 0.397201 0.000000
0.313150 0.500848 0.000000
0.831281 0.397257 0.000000
0.831274 0.603908 0.000000
0.684163 0.501043 0.000000
0.477361 0.480976 0.000000
0.498411 0.435291 0.000000
0.519113 0.480918 0.000000
0.463157 0.381876 0.000000
0.534016 0.381758 0.000000
0.391684 0.394580 0.000000
0.416646 0.320913 0.000000
0.581153 0.320736 0.000000
0.605571 0.394365 0.000000
0.360005 0.252748 0.000000
0.452854 0.244699 0.000000
0.499612 0.165853 0.000000
0.545719 0.244671 0.000000
0.442702 0.084312 0.000000
0.556923 0.084341 0.000000
0.638566 0.252635 0.000000
0.267481 0.268984 0.000000
0.293060 0.177151 0.000000
0.215215 0.093405 0.000000
0.328640 0.087219 0.000000
0.104010 0.104348 0.000000
0.705986 0.177200 0.000000
0.731103 0.268969 0.000000
0.670901 0.087283 0.000000
0.784231 0.093542 0.000000
0.895604 0.104458 0.000000
0.518859 0.522428 0.000000
0.497998 0.567469 0.000000
0.477218 0.522377 0.000000
0.533502 0.620327 0.000000
0.462897 0.620227 0.000000
0.605153 0.607710 0.000000
0.580659 0.680786 0.000000
0.416671 0.680566 0.000000
0.391683 0.607396 0.000000
0.638202 0.748541 0.000000
0.545328 0.756493 0.000000
0.499443 0.834900 0.000000
0.452721 0.756402 0.000000
0.556796 0.916042 0.000000
0.442759 0.916016 0.000000
0.360164 0.748245 0.000000
0.730945 0.732194 0.000000
0.705770 0.823550 0.000000
0.784153 0.906833 0.000000
0.670751 0.913099 0.000000
0.895606 0.895861 0.000000
0.293382 0.823366 0.000000
0.267705 0.731850 0.000000
0.328882 0.913046 0.000000
0.215517 0.906735 0.000000
0.104154 0.895768 0.000000
0.093033 0.784470 0.000000
0.086643 0.671169 0.000000
0.176102 0.706512 0.000000
0.083667 0.557261 0.000000
0.251045 0.639431 0.000000
0.083683 0.443222 0.000000
0.164510 0.500433 0.000000
0.242753 0.454311 0.000000
0.242713 0.546861 0.000000
0.250868 0.361625 0.000000
0.318335 0.418933 0.000000
0.318506 0.582653 0.000000
0.086631 0.329260 0.000000
0.092932 0.215788 0.000000
0.176072 0.294171 0.000000
0.378880 0.536304 0.000000
0.378898 0.465962 0.000000
0.431859 0.501478 0.000000
0.906491 0.215898 0.000000
0.912700 0.329295 0.000000
0.822819 0.294220 0.000000
0.915587 0.443259 0.000000
0.747300 0.361600 0.000000
0.915595 0.557347 0.000000
0.834033 0.500628 0.000000
0.755189 0.547251 0.000000
0.755229 0.454484 0.000000
0.747233 0.639959 0.000000
0.678983 0.583132 0.000000
0.679146 0.418871 0.000000
0.912730 0.671315 0.000000
0.906552 0.784657 0.000000
0.822815 0.706833 0.000000
0.618204 0.465881 0.000000
0.618002 0.536515 0.000000
0.564719 0.501470 0.000000
POLYGONS 256 1024
3 32 57 59
3 57 58 59
3 57 37 58
3 59 58 39
3 37 60 58
3 60 61 58
3 60 38 61
3 58 61 39
3 37 62 60
3 62 63 60
3 62 33 63
3 60 63 38
3 39 61 65
3 61 64 65
3 61 38 64
3 65 64 34
3 33 66 63
3 66 67 63
3 66 40 67
3 63 67 38
3 40 68 67
3 68 69 67
3 68 41 69
3 67 69 38
3 40 70 68
3 70 71 68
3 70 7 71
3 68 71 41
3 38 69 64
3 69 72 64
3 69 41 72
3 64 72 34
3 33 73 66
3 73 74 66
3 73 42 74
3 66 74 40
3 42 75 74
3 75 76 74
3 75 5 76
3 74 76 40
3 42 77 75
3 77 4 75
3 77 0 4
3 75 4 5
3 40 76 70
3 76 6 70
3 76 5 6
3 70 6 7
3 34 72 79
3 72 78 79
3 72 41 78
3 79 78 43
3 41 80 78
3 80 81 78
3 80 9 81
3 78 81 43
3 41 71 80
3 71 8 80
3 71 7 8
3 80 8 9
3 43 81 82
3 81 10 82
3 81 9 10
3 82 10 1
3 32 83 85
3 83 84 85
3 83 44 84
3 85 84 46
3 44 86 84
3 86 87 84
3 86 45 87
3 84 87 46
3 44 88 86
3 88 89 86
3 88 35 89
3 86 89 45
3 46 87 91
3 87 90 91
3 87 45 90
3 91 90 36
3 35 92 89
3 92 93 89
3 92 47 93
3 89 93 45
3 47 94 93
3 94 95 93
3 94 48 95
3 93 95 45
3 47 96 94
3 96 97 94
3 96 21 97
3 94 97 48
3 45 95 90
3 95 98 90
3 95 48 98
3 90 98 36
3 35 99 92
3 99 100 92
3 99 49 100
3 92 100 47
3 49 101 100
3 101 102 100
3 101 19 102
3 100 102 47
3 49 103 101
3 103 18 101
3 103 2 18
3 101 18 19
3 47 102 96
3 102 20 96
3 102 19 20
3 96 20 21
3 36 98 105
3 98 104 105
3 98 48 104
3 105 104 50
3 48 106 104
3 106 107 104
3 106 23 107
3 104 107 50
3 48 97 106
3 97 22 106
3 97 21 22
3 106 22 23
3 50 107 108
3 107 24 108
3 107 23 24
3 108 24 3
3 3 25 108
3 25 109 108
3 25 26 109
3 108 109 50
3 26 110 109
3 110 111 109
3 110 51 111
3 109 111 50
3 26 27 110
3 27 112 110
3 27 28 112
3 110 112 51
3 50 111 105
3 111 113 105
3 111 51 113
3 105 113 36
3 28 114 112
3 114 115 112
3 114 52 115
3 112 115 51
3 52 116 115
3 116 117 115
3 116 53 117
3 115 117 51
3 52 118 116
3 118 119 116
3 118 33 119
3 116 119 53
3 51 117 113
3 117 120 113
3 117 53 120
3 113 120 36
3 28 29 114
3 29 121 114
3 29 30 121
3 114 121 52
3 30 122 121
3 122 123 121
3 122 42 123
3 121 123 52
3 30 31 122
3 31 77 122
3 31 0 77
3 122 77 42
3 52 123 118
3 123 73 118
3 123 42 73
3 118 73 33
3 36 120 91
3 120 124 91
3 120 53 124
3 91 124 46
3 53 125 124
3 125 126 124
3 125 37 126
3 124 126 46
3 53 119 125
3 119 62 125
3 119 33 62
3 125 62 37
3 46 126 85
3 126 57 85
3 126 37 57
3 85 57 32
3 1 11 82
3 11 127 82
3 11 12 127
3 82 127 43
3 12 128 127
3 128 129 127
3 128 54 129
3 127 129 43
3 12 13 128
3 13 130 128
3 13 14 130
3 128 130 54
3 43 129 79
3 129 131 79
3 129 54 131
3 79 131 34
3 14 132 130
3 132 133 130
3 132 55 133
3 130 133 54
3 55 134 133
3 134 135 133
3 134 56 135
3 133 135 54
3 55 136 134
3 136 137 134
3 136 35 137
3 134 137 56
3 54 135 131
3 135 138 131
3 135 56 138
3 131 138 34
3 14 15 132
3 15 139 132
3 15 16 139
3 132 139 55
3 16 140 139
3 140 141 139
3 140 49 141
3 139 141 55
3 16 17 140
3 17 103 140
3 17 2 103
3 140 103 49
3 55 141 136
3 141 99 136
3 141 49 99
3 136 99 35
3 34 138 65
3 138 142 65
3 138 56 142
3 65 142 39
3 56 143 142
3 143 144 142
3 143 44 144
3 142 144 39
3 56 137 143
3 137 88 143
3 137 35 88
3 143 88 44
3 39 144 59
3 144 83 59
3 144 44 83
3 59 83 32
POINT_DATA 145
SCALARS solution_0 double
LOOKUP_TABLE defaul
0.000000
0.000000
0.000000
0.000000
0.000000
0.000000
0.000000
0.000000
0.000000
0.000000
0.000000
0.000000
0.000000
0.000000
0.000000
0.000000
0.000000
0.000000
0.000000
0.000000
0.000000
0.000000
0.000000
0.000000
0.000000
0.000000
0.000000
0.000000
0.000000
0.000000
0.000000
0.000000
1.975357
1.518842
1.521327
1.516072
1.511338
1.911831
1.663456
1.913283
0.980077
0.965905
0.717678
0.719530
1.909141
1.654344
1.906874
0.975587
0.959857
0.717955
0.714371
0.974486
0.961524
1.656578
0.979515
0.964129
1.661086
1.965352
1.934368
1.965825
1.834190
1.834264
1.771816
1.631283
1.629527
1.773821
1.312388
1.377960
0.998113
1.373695
0.523881
0.514986
1.305106
1.154247
0.896303
0.433772
0.502113
0.290164
0.880809
1.156699
0.481520
0.416234
0.291106
1.964111
1.928923
1.963508
1.827025
1.825203
1.768240
1.624602
1.619215
1.764475
1.308158
1.370780
0.992542
1.365183
0.521030
0.512006
1.296254
1.153243
0.893812
0.432647
0.499952
0.290561
0.874623
1.148772
0.478429
0.413076
0.288898
0.431066
0.499029
0.891252
0.520677
1.305218
0.512256
0.992954
1.367616
1.370787
1.300867
1.624803
1.622975
0.479231
0.414388
0.877423
1.827280
1.829524
1.930715
0.433675
0.501618
0.896732
0.523202
1.313195
0.514449
0.996796
1.371078
1.376739
1.301679
1.625250
1.631193
0.480762
0.415364
0.878808
1.833251
1.830738
1.932822
SCALARS solution_1 double
LOOKUP_TABLE defaul
0.000000
0.000000
0.000000
0.000000
0.000000
0.000000
0.000000
0.000000
0.000000
0.000000
0.000000
0.000000
0.000000
0.000000
0.000000
0.000000
0.000000
0.000000
0.000000
0.000000
0.000000
0.000000
0.000000
0.000000
0.000000
0.000000
0.000000
0.000000
0.000000
0.000000
0.000000
0.000000
0.009652
-1.241962
-1.669247
1.262656
1.675411
-0.580938
-1.841059
-0.752162
-1.639881
-1.833498
-0.898825
-1.304260
0.603590
1.849978
0.771642
1.643083
1.829736
0.912233
1.302183
0.721219
-0.344865
0.230757
-0.711359
0.362932
-0.207130
-0.203002
-0.767203
-0.245479
-1.269669
-1.380119
-0.978626
-1.621096
-1.864122
-1.289997
-1.664877
-1.965773
-1.815075
-2.089797
-1.044815
-1.093241
-2.010111
-1.228519
-1.323522
-0.685808
-0.907995
-0.390619
-1.674484
-1.701473
-1.052373
-0.905674
-0.607266
0.223346
0.787764
0.265298
1.289022
1.395579
1.001538
1.636462
1.869908
1.304578
1.676688
1.970348
1.813427
2.089504
1.043940
1.090970
2.008700
1.246276
1.333008
0.691293
0.910281
0.397181
1.670645
1.702153
1.049582
0.902668
0.605503
0.695066
0.510077
1.167776
0.221460
1.268135
-0.065956
0.171975
-0.128520
0.596855
-0.777434
-0.560323
1.019787
-0.296263
-0.426982
-0.735831
0.569458
-0.215016
0.104122
-0.694860
-0.506988
-1.164388
-0.215197
-1.259203
0.075061
-0.156791
0.150679
-0.578998
0.799337
0.584912
-1.003766
0.306733
0.436753
0.753268
-0.549046
0.238691
-0.083167
SCALARS solution_2 double
LOOKUP_TABLE defaul
0.000000
0.000000
0.000000
0.000000
0.000000
0.000000
0.000000
0.000000
0.000000
0.000000
0.000000
0.000000
0.000000
0.000000
0.000000
0.000000
0.000000
0.000000
0.000000
0.000000
0.000000
0.000000
0.000000
0.000000
0.000000
0.000000
0.000000
0.000000
0.000000
0.000000
0.000000
0.000000
0.012330
-1.677310
1.247369
1.668131
-1.260019
-0.752308
-0.223828
0.595278
-0.729291
0.342898
-1.311687
0.899778
0.764087
0.209106
-0.585110
0.704805
-0.368350
1.300597
-0.914568
-1.643461
-1.834175
-1.841484
1.639315
1.831640
1.845446
-0.242064
-0.085949
0.222437
-0.556550
0.226890
-1.294218
-1.016654
0.567376
0.988697
-1.274532
-0.598879
-0.177051
0.129234
-0.227482
0.062251
0.779764
-1.711060
-1.178011
-0.702781
-0.517580
-0.610230
0.736254
1.230813
0.294882
0.427317
0.391066
0.264503
0.098905
-0.201032
0.557086
-0.227722
1.295404
1.004074
-0.582539
-0.989851
1.254574
0.574999
0.150752
-0.154047
0.210330
-0.079388
-0.802783
1.697072
1.158335
0.691395
0.502284
0.605500
-0.757736
-1.247924
-0.310334
-0.439203
-0.398295
-0.692499
-0.911300
-1.334104
-1.045114
-1.675132
-1.093281
-1.815074
-2.089584
-1.967687
-2.013542
-1.865646
-1.628278
-1.053434
-0.907891
-1.678389
-1.272851
-1.380316
-0.765259
0.684956
0.906725
1.323639
1.043587
1.667157
1.092546
1.813921
2.089690
1.967064
2.008113
1.866607
1.626875
1.051129
0.903696
1.671464
1.279561
1.388502
0.781190
SCALARS solution_3 double
LOOKUP_TABLE defaul
0.000000
0.000000
0.000000
0.000000
0.000000
0.000000
0.000000
0.000000
0.000000
0.000000
0.000000
0.000000
0.000000
0.000000
0.000000
0.000000
0.000000
0.000000
0.000000
0.000000
0.000000
0.000000
0.000000
0.000000
0.000000
0.000000
0.000000
0.000000
0.000000
0.000000
0.000000
0.000000
0.007528
1.475010
-1.471921
1.471018
-1.475625
0.250221
-0.332717
-0.243303
0.488576
-1.523531
1.837110
-1.832170
0.259034
-0.341688
-0.244059
0.456069
-1.541829
1.818138
-1.832770
-0.476031
1.526902
0.332879
-0.476297
1.526829
0.343484
0.032716
-0.047870
-0.020856
0.157335
-0.435471
0.767223
0.645711
-1.128324
-0.764208
1.217764
0.064833
-0.618730
-1.059409
-0.141745
-0.761710
-1.822071
1.985396
1.456864
1.019430
0.536615
0.955146
-1.985836
-1.980258
-1.173322
-1.273201
-0.953275
0.037167
-0.043103
-0.020374
0.160700
-0.436144
0.774669
0.638097
-1.135605
-0.767426
1.194821
0.041816
-0.645876
-1.076858
-0.164451
-0.779177
-1.831962
1.968148
1.426368
0.998809
0.511962
0.945808
-1.994358
-1.982622
-1.184230
-1.277152
-0.953244
-1.010144
-0.524476
-1.444835
0.151828
-1.209511
0.767721
0.626726
1.061009
-0.059364
1.822739
1.127867
-0.643097
1.176061
1.274465
1.988180
-0.154599
0.438164
0.054794
-1.012415
-0.528224
-1.446645
0.149385
-1.208078
0.766581
0.628806
1.067868
-0.053033
1.821539
1.136671
-0.637893
1.172893
1.267123
1.979240
-0.148869
0.448226
0.060216
SCALARS solution_4 double
LOOKUP_TABLE defaul
0.000000
0.000000
0.000000
0.000000
0.000000
0.000000
0.000000
0.000000
0.000000
0.000000
0.000000
0.000000
0.000000
0.000000
0.000000
0.000000
0.000000
0.000000
0.000000
0.000000
0.000000
0.000000
0.000000
0.000000
0.000000
0.000000
0.000000
0.000000
0.000000
0.000000
0.000000
0.000000
0.016622
-0.475832
0.501965
-0.512372
0.496254
-0.078574
-1.315779
0.120215
-2.105000
-1.463715
-0.429408
0.432654
-0.086182
-1.335812
0.097370
-2.120078
-1.433476
-0.478369
0.458406
2.098355
1.450438
1.328883
2.106252
1.430286
1.341685
0.003089
-0.183097
0.035181
-0.667054
-0.448357
-0.258922
-1.258195
-0.646367
0.297041
-1.623488
-2.046389
-2.091498
-1.670317
-1.449862
-1.230610
-0.661480
-0.572230
-1.443472
-0.744934
-1.282793
-0.150032
-0.486895
0.584436
-0.759786
-0.221019
0.149965
0.001674
-0.201093
0.025015
-0.692720
-0.473840
-0.279199
-1.290193
-0.656145
0.272761
-1.660629
-2.061324
-2.079416
-1.663937
-1.444057
-1.209839
-0.643241
-0.622234
-1.484378
-0.773858
-1.296805
-0.176999
-0.452025
0.599792
-0.731910
-0.194780
0.166653
0.757298
1.281138
1.457047
1.436512
1.634408
1.215261
2.074887
1.667717
2.044034
0.667243
0.666936
1.271381
0.749332
0.217297
0.483353
0.688802
0.478527
0.214288
0.746258
1.280976
1.450883
1.439268
1.642397
1.208714
2.076906
1.664205
2.058216
0.635947
0.655266
1.291968
0.727738
0.185890
0.440714
0.710267
0.483316
0.226920
SCALARS solution_5 double
LOOKUP_TABLE defaul
0.000000
0.000000
0.000000
0.000000
0.000000
0.000000
0.000000
0.000000
0.000000
0.000000
0.000000
0.000000
0.000000
0.000000
0.000000
0.000000
0.000000
0.000000
0.000000
0.000000
0.000000
0.000000
0.000000
0.000000
0.000000
0.000000
0.000000
0.000000
0.000000
0.000000
0.000000
0.000000
3.060406
0.160636
0.153748
0.135023
0.137582
2.559199
0.969706
2.558536
-0.952265
-1.194831
-1.470494
-1.477178
2.533752
0.942810
2.529550
-0.939077
-1.174557
-1.477920
-1.460789
-0.957807
-1.195145
0.945661
-0.966853
-1.215468
0.941581
2.979042
2.728772
2.978631
2.001889
1.987748
1.570449
0.788726
0.718575
1.565821
-0.504737
-0.201904
-0.957060
-0.300550
-0.815119
-0.926775
-0.677637
-1.083022
-1.220109
-0.960966
-0.841230
-0.856325
-1.460321
-1.090600
-1.078379
-1.118771
-0.860217
2.967686
2.695934
2.967173
1.961356
1.947718
1.537684
0.760371
0.694684
1.534479
-0.512001
-0.204530
-0.938081
-0.299285
-0.798437
-0.908785
-0.674687
-1.096666
-1.216532
-0.956918
-0.829408
-0.860536
-1.441456
-1.084652
-1.061056
-1.102881
-0.849011
-0.954712
-0.839247
-1.220109
-0.815071
-0.521094
-0.926606
-0.961600
-0.310602
-0.219857
-0.677029
0.711105
0.755186
-1.076291
-1.114369
-1.455936
1.967079
1.970667
2.710511
-0.964490
-0.847332
-1.229429
-0.824875
-0.518375
-0.939280
-0.977009
-0.327979
-0.224533
-0.700020
0.687759
0.770370
-1.089484
-1.124452
-1.473562
1.982654
1.958589
2.712638
SCALARS solution_6 double
LOOKUP_TABLE defaul
0.000000
0.000000
0.000000
0.000000
0.000000
0.000000
0.000000
0.000000
0.000000
0.000000
0.000000
0.000000
0.000000
0.000000
0.000000
0.000000
0.000000
0.000000
0.000000
0.000000
0.000000
0.000000
0.000000
0.000000
0.000000
0.000000
0.000000
0.000000
0.000000
0.000000
0.000000
0.000000
-0.009353
0.386857
-0.389980
-0.397426
0.383489
0.437653
1.549344
0.554102
1.885685
-0.139242
-0.642422
-2.490067
-0.453783
-1.555967
-0.573517
-1.878822
0.170167
0.612942
2.488542
0.129899
-1.952813
-0.631043
-0.137092
1.953381
0.629943
0.164363
0.658378
0.215948
1.142317
1.006690
0.586115
1.509019
0.673790
0.489468
1.485145
1.978438
1.399164
1.082612
1.074193
0.257729
-0.535368
-0.155921
0.955159
0.250906
1.081428
-0.554845
-1.789363
-1.787838
-0.865345
-1.671773
-1.560466
-0.183023
-0.678808
-0.235197
-1.159626
-1.023827
-0.596509
-1.520876
-0.677376
-0.504064
-1.496354
-1.973742
-1.371748
-1.068480
-1.053965
-0.227969
0.546383
0.134590
-0.974795
-0.270821
-1.082233
0.535494
1.807570
1.784323
0.891243
1.684076
1.560604
1.569110
0.586020
1.730457
-0.571257
0.755169
-1.349216
-1.309733
-1.326770
-0.546883
-1.159746
-0.473357
-0.187789
-1.546654
-1.204910
-1.633500
-0.425267
-0.125107
-0.140599
-1.579004
-0.598127
-1.743702
0.567256
-0.764932
1.349656
1.313289
1.332711
0.547280
1.155949
0.473189
0.179045
1.539991
1.187154
1.616921
0.412265
0.116877
0.124518
SCALARS solution_7 double
LOOKUP_TABLE defaul
0.000000
0.000000
0.000000
0.000000
0.000000
0.000000
0.000000
0.000000
0.000000
0.000000
0.000000
0.000000
0.000000
0.000000
0.000000
0.000000
0.000000
0.000000
0.000000
0.000000
0.000000
0.000000
0.000000
0.000000
0.000000
0.000000
0.000000
0.000000
0.000000
0.000000
0.000000
0.000000
-0.001230
0.374874
0.396360
-0.400219
-0.396315
-0.565996
-0.622901
0.443319
0.165366
-1.941652
2.492614
-0.629828
0.547737
0.633090
-0.447017
-0.098942
1.969916
-2.481613
0.613597
-1.896246
0.130527
-1.563751
1.879279
-0.167775
1.540335
-0.224515
-0.132506
0.171109
-0.419416
-0.118048
-0.506331
-0.182055
-0.465358
0.593211
0.773910
-0.528508
-1.287350
-1.315712
-0.545097
-1.335504
-1.150798
1.782723
1.761553
1.593332
0.620331
1.561858
-1.623177
-0.143561
-1.539253
-1.197878
-0.548346
0.219497
0.124180
-0.174779
0.405907
0.117501
0.476287
0.177703
0.475395
-0.590723
-0.748352
0.567198
1.343170
1.345953
0.597283
1.369408
1.160011
-1.785527
-1.712737
-1.557267
-0.565085
-1.556581
1.622988
0.134902
1.550916
1.192027
0.537165
-0.273143
-1.092632
-0.979736
-1.073853
-1.501250
-0.255788
-1.404114
-1.097776
-1.989239
0.516865
-0.694859
-1.518837
0.863649
1.668710
1.780690
-1.152306
-1.021741
-0.667947
0.257867
1.079755
0.963175
1.060784
1.490849
0.236105
1.376517
1.060683
1.969513
-0.555005
0.656210
1.512516
-0.885419
-1.679556
-1.804929
1.143571
0.998111
0.658923
SCALARS solution_8 double
LOOKUP_TABLE defaul
0.000000
0.000000
0.000000
0.000000
0.000000
0.000000
0.000000
0.000000
0.000000
0.000000
0.000000
0.000000
0.000000
0.000000
0.000000
0.000000
0.000000
0.000000
0.000000
0.000000
0.000000
0.000000
0.000000
0.000000
0.000000
0.000000
0.000000
0.000000
0.000000
0.000000
0.000000
0.000000
0.028349
-1.463196
-1.771555
1.467223
1.739096
-1.578379
-2.047842
-1.394672
1.796391
1.428434
1.171233
0.448338
1.633442
2.023409
1.427852
-1.792625
-1.399525
-1.264902
-0.468913
0.269590
-0.749048
-0.362612
-0.258414
0.754973
0.434239
-0.589431
-1.720357
-0.471127
-2.427661
-2.434222
-2.099973
-1.812980
-2.075115
-2.020216
0.030082
-0.143436
1.718126
-0.375073
1.971204
1.891647
-0.585627
0.079632
1.628875
1.486800
1.847204
0.855060
0.970157
-0.657275
1.618307
1.165786
0.594133
0.646391
1.756693
0.524696
2.438916
2.426855
2.140128
1.803488
2.039455
2.016479
-0.054641
0.135834
-1.683351
0.367600
-1.938734
-1.849358
0.563496
-0.130900
-1.682031
-1.541557
-1.853527
-0.923425
-0.968818
0.623814
-1.589678
-1.158431
-0.600167
-0.059878
0.138598
0.462970
-0.179473
1.076394
-0.398790
-0.499351
-0.970322
0.142294
-1.088318
-1.556683
1.170951
-0.129104
0.493274
-0.020172
0.638496
-1.050732
-0.121316
0.042281
-0.144441
-0.488055
0.191426
-1.087473
0.403165
0.534681
1.027583
-0.098016
1.096670
1.617029
-1.150780
0.095920
-0.564299
-0.037880
-0.588822
1.122681
0.181778
SCALARS solution_9 double
LOOKUP_TABLE defaul
0.000000
0.000000
0.000000
0.000000
0.000000
0.000000
0.000000
0.000000
0.000000
0.000000
0.000000
0.000000
0.000000
0.000000
0.000000
0.000000
0.000000
0.000000
0.000000
0.000000
0.000000
0.000000
0.000000
0.000000
0.000000
0.000000
0.000000
0.000000
0.000000
0.000000
0.000000
0.000000
-0.031488
1.773301
-1.465494
-1.750318
1.465788
1.397585
-0.380945
-1.613792
0.285829
-0.752513
-0.501108
1.192040
-1.412545
0.420606
1.587880
-0.251394
0.752112
0.430509
-1.251261
-1.767986
-1.414506
2.050993
1.807311
1.421868
-2.024319
0.465934
-0.168495
-0.641512
0.617727
-1.085493
2.030587
1.185080
-1.579812
-2.118830
1.101303
0.149468
-0.495769
-0.981752
-0.171819
-0.397978
-1.095336
0.629662
0.468727
-0.073294
0.145811
-0.631492
-0.012968
0.091704
-0.126651
0.505501
0.869864
-0.519967
0.139611
0.587757
-0.604821
1.087556
-2.009240
-1.143259
1.598422
2.116445
-1.075120
-0.095517
0.535049
1.019537
0.194198
0.402194
1.092060
-0.653442
-0.487450
0.033169
-0.142203
0.576493
-0.034835
-0.119062
0.095670
-0.559756
-0.915060
-1.526601
-1.837917
-1.657728
-1.934268
-0.032912
-1.865408
-1.673809
0.392638
0.166147
0.578058
2.075719
1.815438
-1.625044
-1.201267
-1.001766
2.425643
2.430429
1.713728
1.500043
1.852345
1.647352
1.967474
0.045265
1.880398
1.720739
-0.355343
-0.123127
-0.572392
-2.047823
-1.801582
1.599802
1.143324
0.955099
-2.430941
-2.425354
-1.745912
