# vtk DataFile Version 2.0
MyTitle
ASCII
DATASET UNSTRUCTURED_GRID
POINTS 849 double
2.000000 0.000000 0.000000
3.000000 1.000000 0.000000
3.000000 2.000000 0.000000
2.000000 2.000000 0.000000
1.000000 2.000000 0.000000
1.000000 3.000000 0.000000
0.000000 2.000000 0.000000
0.500000 1.500000 0.000000
1.000000 1.000000 0.000000
2.000000 1.000000 0.000000
2.125000 0.125000 0.000000
2.250000 0.250000 0.000000
2.375000 0.375000 0.000000
2.500000 0.500000 0.000000
2.625000 0.625000 0.000000
2.750000 0.750000 0.000000
2.875000 0.875000 0.000000
2.062500 0.062500 0.000000
2.187500 0.187500 0.000000
2.312500 0.312500 0.000000
2.437500 0.437500 0.000000
2.562500 0.562500 0.000000
2.687500 0.687500 0.000000
2.812500 0.812500 0.000000
2.937500 0.937500 0.000000
3.000000 1.125000 0.000000
3.000000 1.250000 0.000000
3.000000 1.375000 0.000000
3.000000 1.500000 0.000000
3.000000 1.625000 0.000000
3.000000 1.750000 0.000000
3.000000 1.875000 0.000000
3.000000 1.062500 0.000000
3.000000 1.187500 0.000000
3.000000 1.312500 0.000000
3.000000 1.437500 0.000000
3.000000 1.562500 0.000000
3.000000 1.687500 0.000000
3.000000 1.812500 0.000000
3.000000 1.937500 0.000000
2.875000 2.000000 0.000000
2.750000 2.000000 0.000000
2.625000 2.000000 0.000000
2.500000 2.000000 0.000000
2.375000 2.000000 0.000000
2.250000 2.000000 0.000000
2.125000 2.000000 0.000000
2.937500 2.000000 0.000000
2.812500 2.000000 0.000000
2.687500 2.000000 0.000000
2.562500 2.000000 0.000000
2.437500 2.000000 0.000000
2.312500 2.000000 0.000000
2.187500 2.000000 0.000000
2.062500 2.000000 0.000000
1.875000 2.000000 0.000000
1.750000 2.000000 0.000000
1.625000 2.000000 0.000000
1.500000 2.000000 0.000000
1.375000 2.000000 0.000000
1.250000 2.000000 0.000000
1.125000 2.000000 0.000000
1.937500 2.000000 0.000000
1.812500 2.000000 0.000000
1.687500 2.000000 0.000000
1.562500 2.000000 0.000000
1.437500 2.000000 0.000000
1.312500 2.000000 0.000000
1.187500 2.000000 0.000000
1.062500 2.000000 0.000000
1.000000 2.125000 0.000000
1.000000 2.250000 0.000000
1.000000 2.375000 0.000000
1.000000 2.500000 0.000000
1.000000 2.625000 0.000000
1.000000 2.750000 0.000000
1.000000 2.875000 0.000000
1.000000 2.062500 0.000000
1.000000 2.187500 0.000000
1.000000 2.312500 0.000000
1.000000 2.437500 0.000000
1.000000 2.562500 0.000000
1.000000 2.687500 0.000000
1.000000 2.812500 0.000000
1.000000 2.937500 0.000000
0.875000 2.875000 0.000000
0.750000 2.750000 0.000000
0.625000 2.625000 0.000000
0.500000 2.500000 0.000000
0.375000 2.375000 0.000000
0.250000 2.250000 0.000000
0.125000 2.125000 0.000000
0.937500 2.937500 0.000000
0.812500 2.812500 0.000000
0.687500 2.687500 0.000000
0.562500 2.562500 0.000000
0.437500 2.437500 0.000000
0.312500 2.312500 0.000000
0.187500 2.187500 0.000000
0.062500 2.062500 0.000000
0.062500 1.937500 0.000000
0.125000 1.875000 0.000000
0.187500 1.812500 0.000000
0.250000 1.750000 0.000000
0.312500 1.687500 0.000000
0.375000 1.625000 0.000000
0.437500 1.562500 0.000000
0.031250 1.968750 0.000000
0.093750 1.906250 0.000000
0.156250 1.843750 0.000000
0.218750 1.781250 0.000000
0.281250 1.718750 0.000000
0.343750 1.656250 0.000000
0.406250 1.593750 0.000000
0.468750 1.531250 0.000000
0.562500 1.437500 0.000000
0.625000 1.375000 0.000000
0.687500 1.312500 0.000000
0.750000 1.250000 0.000000
0.812500 1.187500 0.000000
0.875000 1.125000 0.000000
0.937500 1.062500 0.000000
0.531250 1.468750 0.000000
0.593750 1.406250 0.000000
0.656250 1.343750 0.000000
0.718750 1.281250 0.000000
0.781250 1.218750 0.000000
0.843750 1.156250 0.000000
0.906250 1.093750 0.000000
0.968750 1.031250 0.000000
1.125000 1.000000 0.000000
1.250000 1.000000 0.000000
1.375000 1.000000 0.000000
1.500000 1.000000 0.000000
1.625000 1.000000 0.000000
1.750000 1.000000 0.000000
1.875000 1.000000 0.000000
1.062500 1.000000 0.000000
1.187500 1.000000 0.000000
1.312500 1.000000 0.000000
1.437500 1.000000 0.000000
1.562500 1.000000 0.000000
1.687500 1.000000 0.000000
1.812500 1.000000 0.000000
1.937500 1.000000 0.000000
2.000000 0.875000 0.000000
2.000000 0.750000 0.000000
2.000000 0.625000 0.000000
2.000000 0.500000 0.000000
2.000000 0.375000 0.000000
2.000000 0.250000 0.000000
2.000000 0.125000 0.000000
2.000000 0.937500 0.000000
2.000000 0.812500 0.000000
2.000000 0.687500 0.000000
2.000000 0.562500 0.000000
2.000000 0.437500 0.000000
2.000000 0.312500 0.000000
2.000000 0.187500 0.000000
2.000000 0.062500 0.000000
2.125000 1.125000 0.000000
2.250000 1.250000 0.000000
2.375000 1.375000 0.000000
2.500000 1.500000 0.000000
2.625000 1.625000 0.000000
2.750000 1.750000 0.000000
2.875000 1.875000 0.000000
2.062500 1.062500 0.000000
2.187500 1.187500 0.000000
2.312500 1.312500 0.000000
2.437500 1.437500 0.000000
2.562500 1.562500 0.000000
2.687500 1.687500 0.000000
2.812500 1.812500 0.000000
2.937500 1.937500 0.000000
1.125000 1.125000 0.000000
1.250000 1.250000 0.000000
1.375000 1.375000 0.000000
1.500000 1.500000 0.000000
1.625000 1.625000 0.000000
1.750000 1.750000 0.000000
1.875000 1.875000 0.000000
1.062500 1.062500 0.000000
1.187500 1.187500 0.000000
1.312500 1.312500 0.000000
1.437500 1.437500 0.000000
1.562500 1.562500 0.000000
1.687500 1.687500 0.000000
1.812500 1.812500 0.000000
1.937500 1.937500 0.000000
0.562500 1.562500 0.000000
0.625000 1.625000 0.000000
0.687500 1.687500 0.000000
0.750000 1.750000 0.000000
0.812500 1.812500 0.000000
0.875000 1.875000 0.000000
0.937500 1.937500 0.000000
0.531250 1.531250 0.000000
0.593750 1.593750 0.000000
0.656250 1.656250 0.000000
0.718750 1.718750 0.000000
0.781250 1.781250 0.000000
0.843750 1.843750 0.000000
0.906250 1.906250 0.000000
0.968750 1.968750 0.000000
2.250000 1.000000 0.000000
2.500000 1.250000 0.000000
2.750000 1.500000 0.000000
2.250000 0.750000 0.000000
2.500000 1.000000 0.000000
2.750000 1.250000 0.000000
2.250000 0.500000 0.000000
2.500000 0.750000 0.000000
2.750000 1.000000 0.000000
2.125000 0.875000 0.000000
2.250000 1.125000 0.000000
2.125000 1.000000 0.000000
2.375000 1.125000 0.000000
2.500000 1.375000 0.000000
2.375000 1.250000 0.000000
2.625000 1.375000 0.000000
2.750000 1.625000 0.000000
2.625000 1.500000 0.000000
2.875000 1.625000 0.000000
2.875000 1.750000 0.000000
2.125000 0.625000 0.000000
2.250000 0.875000 0.000000
2.125000 0.750000 0.000000
2.375000 0.875000 0.000000
2.500000 1.125000 0.000000
2.375000 1.000000 0.000000
2.625000 1.125000 0.000000
2.750000 1.375000 0.000000
2.625000 1.250000 0.000000
2.875000 1.375000 0.000000
2.875000 1.500000 0.000000
2.125000 0.375000 0.000000
2.250000 0.625000 0.000000
2.125000 0.500000 0.000000
2.375000 0.625000 0.000000
2.500000 0.875000 0.000000
2.375000 0.750000 0.000000
2.625000 0.875000 0.000000
2.750000 1.125000 0.000000
2.625000 1.000000 0.000000
2.875000 1.125000 0.000000
2.875000 1.250000 0.000000
2.250000 0.375000 0.000000
2.125000 0.250000 0.000000
2.500000 0.625000 0.000000
2.375000 0.500000 0.000000
2.750000 0.875000 0.000000
2.625000 0.750000 0.000000
2.875000 1.000000 0.000000
2.062500 0.937500 0.000000
2.125000 1.062500 0.000000
2.062500 0.812500 0.000000
2.125000 0.937500 0.000000
2.187500 0.937500 0.000000
2.250000 1.062500 0.000000
2.187500 1.062500 0.000000
2.250000 1.187500 0.000000
2.312500 1.187500 0.000000
2.375000 1.312500 0.000000
2.312500 1.062500 0.000000
2.375000 1.187500 0.000000
2.437500 1.187500 0.000000
2.500000 1.312500 0.000000
2.437500 1.312500 0.000000
2.500000 1.437500 0.000000
2.562500 1.437500 0.000000
2.625000 1.562500 0.000000
2.562500 1.312500 0.000000
2.625000 1.437500 0.000000
2.687500 1.437500 0.000000
2.750000 1.562500 0.000000
2.687500 1.562500 0.000000
2.750000 1.687500 0.000000
2.812500 1.687500 0.000000
2.875000 1.812500 0.000000
2.812500 1.562500 0.000000
2.875000 1.687500 0.000000
2.937500 1.687500 0.000000
2.937500 1.812500 0.000000
2.062500 0.687500 0.000000
2.125000 0.812500 0.000000
2.062500 0.562500 0.000000
2.125000 0.687500 0.000000
2.187500 0.687500 0.000000
2.250000 0.812500 0.000000
2.187500 0.812500 0.000000
2.250000 0.937500 0.000000
2.312500 0.937500 0.000000
2.375000 1.062500 0.000000
2.312500 0.812500 0.000000
2.375000 0.937500 0.000000
2.437500 0.937500 0.000000
2.500000 1.062500 0.000000
2.437500 1.062500 0.000000
2.500000 1.187500 0.000000
2.562500 1.187500 0.000000
2.625000 1.312500 0.000000
2.562500 1.062500 0.000000
2.625000 1.187500 0.000000
2.687500 1.187500 0.000000
2.750000 1.312500 0.000000
2.687500 1.312500 0.000000
2.750000 1.437500 0.000000
2.812500 1.437500 0.000000
2.875000 1.562500 0.000000
2.812500 1.312500 0.000000
2.875000 1.437500 0.000000
2.937500 1.437500 0.000000
2.937500 1.562500 0.000000
2.062500 0.437500 0.000000
2.125000 0.562500 0.000000
2.062500 0.312500 0.000000
2.125000 0.437500 0.000000
2.187500 0.437500 0.000000
2.250000 0.562500 0.000000
2.187500 0.562500 0.000000
2.250000 0.687500 0.000000
2.312500 0.687500 0.000000
2.375000 0.812500 0.000000
2.312500 0.562500 0.000000
2.375000 0.687500 0.000000
2.437500 0.687500 0.000000
2.500000 0.812500 0.000000
2.437500 0.812500 0.000000
2.500000 0.937500 0.000000
2.562500 0.937500 0.000000
2.625000 1.062500 0.000000
2.562500 0.812500 0.000000
2.625000 0.937500 0.000000
2.687500 0.937500 0.000000
2.750000 1.062500 0.000000
2.687500 1.062500 0.000000
2.750000 1.187500 0.000000
2.812500 1.187500 0.000000
2.875000 1.312500 0.000000
2.812500 1.062500 0.000000
2.875000 1.187500 0.000000
2.937500 1.187500 0.000000
2.937500 1.312500 0.000000
2.062500 0.187500 0.000000
2.125000 0.312500 0.000000
2.125000 0.187500 0.000000
2.250000 0.312500 0.000000
2.187500 0.312500 0.000000
2.250000 0.437500 0.000000
2.312500 0.437500 0.000000
2.375000 0.562500 0.000000
2.375000 0.437500 0.000000
2.500000 0.562500 0.000000
2.437500 0.562500 0.000000
2.500000 0.687500 0.000000
2.562500 0.687500 0.000000
2.625000 0.812500 0.000000
2.625000 0.687500 0.000000
2.750000 0.812500 0.000000
2.687500 0.812500 0.000000
2.750000 0.937500 0.000000
2.812500 0.937500 0.000000
2.875000 1.062500 0.000000
2.875000 0.937500 0.000000
2.937500 1.062500 0.000000
1.500000 1.250000 0.000000
[...]
POINT_DATA 849
VECTORS sol double
+0.000000 +0.000000 0
+0.000000 +0.000000 0
+0.000000 +0.000000 0
+0.000000 +0.000000 0
+0.000000 +0.000000 0
+0.000000 +0.000000 0
+0.000000 +0.000000 0
+0.000000 +0.000000 0
+0.000000 +0.000000 0
+0.000000 +0.000000 0
+0.000000 +0.000000 0
+0.000000 +0.000000 0
+0.000000 +0.000000 0
+0.000000 +0.000000 0
+0.000000 +0.000000 0
+0.000000 +0.000000 0
+0.000000 +0.000000 0
+0.000000 +0.000000 0
+0.000000 +0.000000 0
+0.000000 +0.000000 0
+0.000000 +0.000000 0
+0.000000 +0.000000 0
+0.000000 +0.000000 0
+0.000000 +0.000000 0
+0.000000 +0.000000 0
+0.000000 +0.000000 0
+0.000000 +0.000000 0
+0.000000 +0.000000 0
+0.000000 +0.000000 0
+0.000000 +0.000000 0
+0.000000 +0.000000 0
+0.000000 +0.000000 0
+0.000000 +0.000000 0
+0.000000 +0.000000 0
+0.000000 +0.000000 0
+0.000000 +0.000000 0
+0.000000 +0.000000 0
+0.000000 +0.000000 0
+0.000000 +0.000000 0
+0.000000 +0.000000 0
+0.000000 +0.000000 0
+0.000000 +0.000000 0
+0.000000 +0.000000 0
+0.000000 +0.000000 0
+0.000000 +0.000000 0
+0.000000 +0.000000 0
+0.000000 +0.000000 0
+0.000000 +0.000000 0
+0.000000 +0.000000 0
+0.000000 +0.000000 0
+0.000000 +0.000000 0
+0.000000 +0.000000 0
+0.000000 +0.000000 0
+0.000000 +0.000000 0
+0.000000 +0.000000 0
+0.000000 +0.000000 0
+0.000000 +0.000000 0
+0.000000 +0.000000 0
+0.000000 +0.000000 0
+0.000000 +0.000000 0
+0.000000 +0.000000 0
+0.000000 +0.000000 0
+0.000000 +0.000000 0
+0.000000 +0.000000 0
+0.000000 +0.000000 0
+0.000000 +0.000000 0
+0.000000 +0.000000 0
+0.000000 +0.000000 0
+0.000000 +0.000000 0
+0.000000 +0.000000 0
+0.000000 +0.000000 0
+0.000000 +0.000000 0
+0.000000 +0.000000 0
+0.000000 +0.000000 0
+0.000000 +0.000000 0
+0.000000 +0.000000 0
+0.000000 +0.000000 0
+0.000000 +0.000000 0
+0.000000 +0.000000 0
+0.000000 +0.000000 0
+0.000000 +0.000000 0
+0.000000 +0.000000 0
+0.000000 +0.000000 0
+0.000000 +0.000000 0
+0.000000 +0.000000 0
+0.000000 +0.000000 0
+0.000000 +0.000000 0
+0.000000 +0.000000 0
+0.000000 +0.000000 0
+0.000000 +0.000000 0
+0.000000 +0.000000 0
+0.000000 +0.000000 0
+0.000000 +0.000000 0
+0.000000 +0.000000 0
+0.000000 +0.000000 0
+0.000000 +0.000000 0
+0.000000 +0.000000 0
+0.000000 +0.000000 0
+0.000000 +0.000000 0
+0.000000 +0.000000 0
+0.000000 +0.000000 0
+0.000000 +0.000000 0
+0.000000 +0.000000 0
+0.000000 +0.000000 0
+0.000000 +0.000000 0
+0.000000 +0.000000 0
+0.000000 +0.000000 0
+0.000000 +0.000000 0
+0.000000 +0.000000 0
+0.000000 +0.000000 0
+0.000000 +0.000000 0
+0.000000 +0.000000 0
+0.000000 +0.000000 0
+0.000000 +0.000000 0
+0.000000 +0.000000 0
+0.000000 +0.000000 0
+0.000000 +0.000000 0
+0.000000 +0.000000 0
+0.000000 +0.000000 0
+0.000000 +0.000000 0
+0.000000 +0.000000 0
+0.000000 +0.000000 0
+0.000000 +0.000000 0
+0.000000 +0.000000 0
+0.000000 +0.000000 0
+0.000000 +0.000000 0
+0.000000 +0.000000 0
+0.000000 +0.000000 0
+0.000000 +0.000000 0
+0.000000 +0.000000 0
+0.000000 +0.000000 0
+0.000000 +0.000000 0
+0.000000 +0.000000 0
+0.000000 +0.000000 0
+0.000000 +0.000000 0
+0.000000 +0.000000 0
+0.000000 +0.000000 0
+0.000000 +0.000000 0
+0.000000 +0.000000 0
+0.000000 +0.000000 0
+0.000000 +0.000000 0
+0.000000 +0.000000 0
+0.000000 +0.000000 0
+0.000000 +0.000000 0
+0.000000 +0.000000 0
+0.000000 +0.000000 0
+0.000000 +0.000000 0
+0.000000 +0.000000 0
+0.000000 +0.000000 0
+0.000000 +0.000000 0
+0.000000 +0.000000 0
+0.000000 +0.000000 0
+0.000000 +0.000000 0
+0.000000 +0.000000 0
+0.000000 +0.000000 0
+0.000000 +0.000000 0
+0.000000 +0.000000 0
+0.000000 +0.000000 0
+0.000000 +0.000000 0
+0.000000 +0.000000 0
+0.729239 -0.028018 0
+0.794860 -0.030539 0
+0.524617 -0.020156 0
+0.210658 -0.008094 0
+0.029083 -0.001117 0
-0.018387 +0.000706 0
-0.008749 +0.000336 0
+0.456092 -0.017523 0
+0.831096 -0.031931 0
+0.683959 -0.026278 0
+0.359377 -0.013807 0
+0.099631 -0.003828 0
-0.007775 +0.000299 0
-0.016601 +0.000638 0
-0.002554 +0.000098 0
+0.649578 -0.024957 0
+1.211600 -0.046550 0
+0.972298 -0.037356 0
-0.049443 +0.001900 0
-1.147154 +0.044074 0
-1.520990 +0.058437 0
-0.962863 +0.036994 0
+0.273900 -0.010523 0
+1.002377 -0.038512 0
+1.210066 -0.046491 0
+0.524358 -0.020146 0
-0.647858 +0.024891 0
-1.457107 +0.055983 0
-1.338628 +0.051431 0
-0.480868 +0.018475 0
-0.058622 +0.002252 0
-0.125372 +0.004817 0
-0.201504 +0.007742 0
-0.276903 +0.010639 0
-0.330003 +0.012679 0
-0.330269 +0.012689 0
-0.247957 +0.009527 0
-0.028747 +0.001104 0
-0.090766 +0.003487 0
-0.162761 +0.006253 0
-0.240603 +0.009244 0
-0.308284 +0.011844 0
-0.338728 +0.013014 0
-0.306083 +0.011760 0
-0.140150 +0.005385 0
-0.049581 +0.001905 0
+0.185698 -0.007135 0
+0.048255 -0.001854 0
-0.719285 +0.027635 0
-0.518881 +0.019936 0
-0.117241 +0.004504 0
-0.439077 +0.016870 0
-0.705350 +0.027100 0
-0.364171 +0.013992 0
-0.224166 +0.008613 0
+0.477658 -0.018352 0
+0.199994 -0.007684 0
+0.147261 -0.005658 0
+0.309681 -0.011898 0
+0.491838 -0.018897 0
+0.121130 -0.004654 0
+0.020945 -0.000805 0
+0.122398 -0.004703 0
+0.008508 -0.000327 0
-0.005006 +0.000192 0
-0.409842 +0.015746 0
-0.506285 +0.019452 0
-0.405840 +0.015593 0
-0.721609 +0.027725 0
-0.141499 +0.005436 0
-0.338317 +0.012998 0
-0.288731 +0.011093 0
+0.008132 -0.000312 0
-0.030604 +0.001176 0
-0.021949 +0.000843 0
+0.010453 -0.000402 0
-0.156902 +0.006028 0
-0.665844 +0.025582 0
-0.300432 +0.011543 0
-0.666742 +0.025617 0
-0.748190 +0.028746 0
-0.836488 +0.032138 0
-0.572134 +0.021982 0
-0.276640 +0.010629 0
-0.518852 +0.019935 0
-0.156965 +0.006031 0
-0.089908 +0.003454 0
-0.178023 +0.006840 0
-0.046891 +0.001802 0
-0.408126 +0.015680 0
-0.329588 +0.012663 0
-0.278849 +0.010714 0
-0.379409 +0.014577 0
-0.146956 +0.005646 0
+0.003087 -0.000119 0
+0.445549 -0.017118 0
-0.168352 +0.006468 0
-0.048336 +0.001857 0
-0.163490 +0.006281 0
+0.225708 -0.008672 0
+0.364030 -0.013986 0
+0.689961 -0.026509 0
+0.522910 -0.020090 0
+0.550129 -0.021136 0
+0.064934 -0.002495 0
+0.352540 -0.013545 0
+0.186902 -0.007181 0
+0.278780 -0.010711 0
+0.412412 -0.015845 0
+0.283144 -0.010879 0
+0.208029 -0.007993 0
+0.080386 -0.003088 0
+0.160266 -0.006157 0
+0.138734 -0.005330 0
+0.081717 -0.003140 0
+0.039352 -0.001512 0
+0.059431 -0.002283 0
-0.001270 +0.000049 0
+0.000954 -0.000037 0
-0.008781 +0.000337 0
+0.023536 -0.000904 0
+0.001095 -0.000042 0
+0.000642 -0.000025 0
-0.003871 +0.000149 0
-0.220214 +0.008461 0
-0.342476 +0.013158 0
-0.192299 +0.007388 0
-0.426318 +0.016379 0
-0.598112 +0.022980 0
-0.650381 +0.024988 0
-0.505336 +0.019415 0
-0.303912 +0.011676 0
-0.441443 +0.016960 0
-0.092230 +0.003544 0
-0.758746 +0.029151 0
-0.556809 +0.021393 0
-0.634117 +0.024363 0
-0.336119 +0.012914 0
-0.231650 +0.008900 0
+0.041597 -0.001598 0
-0.073984 +0.002842 0
+0.064331 -0.002472 0
-0.399261 +0.015340 0
-0.152597 +0.005863 0
-0.193300 +0.007427 0
-0.044932 +0.001726 0
-0.004327 +0.000166 0
+0.039083 -0.001502 0
+0.012355 -0.000475 0
+0.012031 -0.000462 0
-0.059334 +0.002280 0
-0.000695 +0.000027 0
-0.003218 +0.000124 0
+0.004817 -0.000185 0
-0.123980 +0.004763 0
-0.363173 +0.013953 0
-0.055468 +0.002131 0
-0.226673 +0.008709 0
-0.291415 +0.011196 0
-0.565501 +0.021727 0
-0.492911 +0.018938 0
-0.722836 +0.027772 0
-0.786092 +0.030202 0
-0.818683 +0.031454 0
-0.571233 +0.021947 0
-0.783200 +0.030091 0
-0.712504 +0.027375 0
-0.764097 +0.029357 0
-0.820508 +0.031524 0
-0.663071 +0.025476 0
-0.642224 +0.024675 0
-0.417061 +0.016024 0
-0.655257 +0.025175 0
-0.574954 +0.022090 0
-0.472179 +0.018141 0
-0.336900 +0.012944 0
-0.393909 +0.015134 0
-0.198084 +0.007610 0
-0.173319 +0.006659 0
-0.052184 +0.002005 0
-0.257095 +0.009878 0
-0.126521 +0.004861 0
-0.065890 +0.002532 0
-0.029973 +0.001152 0
-0.013145 +0.000505 0
-0.094038 +0.003613 0
-0.015852 +0.000609 0
-0.072754 +0.002795 0
-0.103309 +0.003969 0
-0.303364 +0.011655 0
-0.256852 +0.009868 0
-0.508391 +0.019533 0
-0.152406 +0.005856 0
-0.206024 +0.007916 0
-0.382041 +0.014678 0
-0.582484 +0.022379 0
-0.406749 +0.015628 0
-0.506560 +0.019462 0
-0.205391 +0.007891 0
-0.159796 +0.006139 0
-0.335235 +0.012880 0
-0.347158 +0.013338 0
-0.216162 +0.008305 0
-0.166667 +0.006403 0
-0.097014 +0.003727 0
-0.079493 +0.003054 0
+1.287336 -0.049460 0
-0.240765 +0.009250 0
-1.140085 +0.043803 0
+1.180931 -0.045372 0
-0.018032 +0.000693 0
-0.536665 +0.020619 0
+1.113330 -0.042775 0
+0.253465 -0.009738 0
-0.142495 +0.005475 0
+0.901716 -0.034644 0
+1.298529 -0.049890 0
+0.822942 -0.031618 0
+0.789757 -0.030343 0
-0.193536 +0.007436 0
+0.889552 -0.034177 0
-1.054251 +0.040505 0
-1.388974 +0.053365 0
-1.177344 +0.045234 0
-0.609664 +0.023424 0
-0.805413 +0.030944 0
+0.893782 -0.034340 0
+1.232360 -0.047348 0
+0.915118 -0.035159 0
+0.738285 -0.028365 0
-0.171038 +0.006571 0
+0.732415 -0.028140 0
-0.522814 +0.020087 0
-0.833528 +0.032025 0
-0.812142 +0.031203 0
-0.251183 +0.009651 0
-0.414484 +0.015925 0
+0.837036 -0.032159 0
+1.149711 -0.044172 0
+0.863992 -0.033195 0
+0.782189 -0.030052 0
+0.146870 -0.005643 0
+0.776391 -0.029829 0
-0.084041 +0.003229 0
-0.299708 +0.011515 0
-0.263302 +0.010116 0
-0.063510 +0.002440 0
-0.134674 +0.005174 0
+1.013549 -0.038941 0
+0.811361 -0.031173 0
+0.269871 -0.010369 0
+0.700327 -0.026907 0
-0.056819 +0.002183 0
+0.005465 -0.000210 0
-0.026298 +0.001010 0
+0.401336 -0.015420 0
+0.750679 -0.028841 0
+0.469768 -0.018049 0
+0.873382 -0.033556 0
+1.198133 -0.046033 0
+1.302793 -0.050054 0
+1.152222 -0.044269 0
+1.270738 -0.048822 0
+1.210217 -0.046497 0
+0.938491 -0.036057 0
+1.142472 -0.043894 0
+0.837636 -0.032182 0
+0.295884 -0.011368 0
-0.232426 +0.008930 0
+0.390519 -0.015004 0
-0.130317 +0.005007 0
-0.750883 +0.028849 0
-1.182300 +0.045425 0
-0.719189 +0.027632 0
-1.134781 +0.043599 0
-1.195879 +0.045946 0
-1.276180 +0.049031 0
-1.399067 +0.053753 0
-1.473012 +0.056594 0
-1.169402 +0.044929 0
-0.890955 +0.034231 0
-0.922203 +0.035432 0
-0.709151 +0.027246 0
-0.279209 +0.010727 0
-0.385392 +0.014807 0
+0.494796 -0.019010 0
+0.915787 -0.035185 0
+0.492484 -0.018921 0
+0.907692 -0.034874 0
+1.134802 -0.043600 0
+1.204286 -0.046269 0
+1.177884 -0.045255 0
+1.262352 -0.048500 0
+1.070655 -0.041135 0
+0.753008 -0.028931 0
+1.034130 -0.039732 0
+0.727876 -0.027965 0
+0.361138 -0.013875 0
-0.101345 +0.003894 0
+0.288175 -0.011072 0
-0.220330 +0.008465 0
-0.558910 +0.021474 0
-0.944557 +0.036290 0
-0.327562 +0.012585 0
-0.668298 +0.025676 0
-0.586591 +0.022537 0
-0.679717 +0.026115 0
-0.900044 +0.034580 0
-0.989471 +0.038016 0
-0.651757 +0.025041 0
-0.509004 +0.019556 0
-0.409156 +0.015720 0
-0.327027 +0.012565 0
-0.105717 +0.004062 0
-0.181803 +0.006985 0
+0.478410 -0.018381 0
+0.879132 -0.033777 0
+0.462808 -0.017781 0
+0.849796 -0.032650 0
+1.062866 -0.040836 0
+1.135142 -0.043613 0
+1.096523 -0.042129 0
+1.163079 -0.044686 0
+1.028016 -0.039497 0
+0.756854 -0.029079 0
+1.003913 -0.038571 0
+0.787874 -0.030271 0
+0.513213 -0.019718 0
+0.210616 -0.008092 0
+0.460036 -0.017675 0
+0.067772 -0.002604 0
-0.104344 +0.004009 0
-0.385121 +0.014797 0
+0.048266 -0.001854 0
-0.161922 +0.006221 0
-0.141989 +0.005455 0
-0.210828 +0.008100 0
-0.322158 +0.012377 0
-0.408299 +0.015687 0
-0.225937 +0.008681 0
-0.186673 +0.007172 0
-0.108826 +0.004181 0
-0.094047 +0.003613 0
-0.024954 +0.000959 0
-0.054593 +0.002098 0
+0.449081 -0.017254 0
+0.824505 -0.031678 0
+0.779443 -0.029947 0
+0.922201 -0.035431 0
+0.997737 -0.038334 0
+1.077149 -0.041385 0
+0.897219 -0.034472 0
+0.753867 -0.028964 0
+0.620553 -0.023842 0
+0.247283 -0.009501 0
+0.476268 -0.018298 0
+0.272948 -0.010487 0
+0.109538 -0.004208 0
-0.028847 +0.001108 0
+0.023396 -0.000899 0
-0.033096 +0.001272 0
-0.045294 +0.001740 0
-0.091855 +0.003529 0
-0.045510 +0.001748 0
-0.041688 +0.001602 0
-0.015938 +0.000612 0
-0.009884 +0.000380 0
-0.073675 +0.002831 0
-0.416631 +0.016007 0
-0.587637 +0.022577 0
+0.296004 -0.011373 0
-0.382249 +0.014686 0
-0.965451 +0.037093 0
+0.853846 -0.032805 0
-0.254033 +0.009760 0
-1.377834 +0.052937 0
-0.007591 +0.000292 0
-0.134225 +0.005157 0
-0.054754 +0.002104 0
-0.221276 +0.008502 0
-0.370604 +0.014239 0
-0.246149 +0.009457 0
-0.573536 +0.022036 0
-0.451411 +0.017343 0
-0.460710 +0.017701 0
-0.392998 +0.015099 0
-0.295185 +0.011341 0
+0.243696 -0.009363 0
+0.071344 -0.002741 0
+0.092999 -0.003573 0
+0.063060 -0.002423 0
-0.416810 +0.016014 0
-0.115824 +0.004450 0
-0.814112 +0.031279 0
-0.760008 +0.029200 0
-0.687994 +0.026433 0
-0.676862 +0.026005 0
-0.525688 +0.020197 0
+0.589551 -0.022651 0
+0.572530 -0.021997 0
+0.423018 -0.016253 0
+0.540406 -0.020763 0
-0.325613 +0.012510 0
+0.292449 -0.011236 0
-1.071169 +0.041155 0
-1.183604 +0.045475 0
-0.948340 +0.036436 0
-0.939482 +0.036095 0
-0.824929 +0.031694 0
+1.083875 -0.041643 0
+0.683405 -0.026257 0
-0.165590 +0.006362 0
+0.774951 -0.029774 0
-1.503256 +0.057756 0
-1.149816 +0.044176 0
-0.991222 +0.038083 0
-0.025720 +0.000988 0
-0.061290 +0.002355 0
+0.000194 -0.000007 0
-0.037697 +0.001448 0
-0.031034 +0.001192 0
-0.114316 +0.004392 0
-0.090622 +0.003482 0
-0.137196 +0.005271 0
-0.186996 +0.007184 0
-0.231306 +0.008887 0
-0.138428 +0.005318 0
-0.243788 +0.009366 0
-0.317816 +0.012211 0
-0.399935 +0.015366 0
-0.309431 +0.011888 0
-0.329224 +0.012649 0
-0.423768 +0.016281 0
-0.397983 +0.015291 0
-0.506851 +0.019473 0
-0.517875 +0.019897 0
-0.603815 +0.023199 0
-0.515308 +0.019798 0
-0.472544 +0.018155 0
-0.394102 +0.015142 0
-0.392697 +0.015088 0
-0.260493 +0.010008 0
-0.517108 +0.019868 0
-0.338341 +0.012999 0
-0.218195 +0.008383 0
-0.158687 +0.006097 0
+0.054379 -0.002089 0
+0.035602 -0.001368 0
+0.135023 -0.005188 0
+0.162806 -0.006255 0
+0.302878 -0.011637 0
+0.174579 -0.006707 0
+0.101504 -0.003900 0
-0.012352 +0.000475 0
-0.002736 +0.000105 0
-0.178945 +0.006875 0
+0.214416 -0.008238 0
-0.034778 +0.001336 0
-0.145086 +0.005574 0
-0.403076 +0.015486 0
-0.259950 +0.009987 0
-0.421996 +0.016213 0
-0.567349 +0.021798 0
-0.629447 +0.024184 0
-0.617633 +0.023730 0
-0.749186 +0.028784 0
-0.938746 +0.036067 0
-0.859157 +0.033009 0
-0.757708 +0.029112 0
-0.668595 +0.025688 0
-0.682946 +0.026239 0
-0.455964 +0.017518 0
-0.878080 +0.033736 0
-0.600156 +0.023058 0
-0.374628 +0.014393 0
-0.292645 +0.011244 0
+0.230087 -0.008840 0
+0.332039 -0.012757 0
+0.315297 -0.012114 0
+0.511941 -0.019669 0
+0.784015 -0.030122 0
+0.716139 -0.027514 0
+0.546533 -0.020998 0
+0.430220 -0.016529 0
+0.486834 -0.018704 0
+0.173044 -0.006648 0
+0.773225 -0.029708 0
+0.416023 -0.015984 0
+0.180090 -0.006919 0
-0.291644 +0.011205 0
+0.008339 -0.000320 0
-0.356080 +0.013681 0
-0.662932 +0.025470 0
-0.880839 +0.033842 0
-0.696744 +0.026769 0
-1.012944 +0.038918 0
-1.313702 +0.050473 0
-1.286615 +0.049432 0
-1.134144 +0.043574 0
-1.074773 +0.041293 0
-1.078465 +0.041435 0
-0.753541 +0.028951 0
-1.247239 +0.047920 0
-0.889063 +0.034158 0
-0.500293 +0.019222 0
-0.449609 +0.017274 0
+0.352373 -0.013538 0
+0.651403 -0.025027 0
+0.690967 -0.026547 0
+1.162226 -0.044653 0
+0.954418 -0.036669 0
+0.978676 -0.037601 0
+1.027413 -0.039474 0
+0.661136 -0.025401 0
+0.879806 -0.033803 0
-0.111910 +0.004300 0
+0.354840 -0.013633 0
-0.212563 +0.008167 0
-0.700097 +0.026898 0
-1.118552 +0.042975 0
-1.161072 +0.044609 0
-1.528016 +0.058707 0
-1.435142 +0.055139 0
-1.452362 +0.055800 0
-1.343961 +0.051636 0
-0.975363 +0.037474 0
-0.987846 +0.037954 0
-0.512478 +0.019690 0
+0.198284 -0.007618 0
+0.275355 -0.010579 0
+0.139944 -0.005377 0
+0.166585 -0.006400 0
+0.282374 -0.010849 0
+0.227936 -0.008757 0
-0.020513 +0.000788 0
-0.014188 +0.000545 0
+0.066341 -0.002549 0
+0.106067 -0.004075 0
+0.121293 -0.004660 0
+0.065872 -0.002531 0
+0.260819 -0.010021 0
+0.153831 -0.005910 0
+0.154501 -0.005936 0
+0.230285 -0.008848 0
+0.060553 -0.002326 0
+0.116725 -0.004485 0
+0.048743 -0.001873 0
+0.015819 -0.000608 0
+0.086290 -0.003315 0
+0.212939 -0.008181 0
+0.112122 -0.004308 0
+0.235341 -0.009042 0
+0.324453 -0.012466 0
+0.289647 -0.011128 0
+0.286948 -0.011025 0
+0.206477 -0.007933 0
+0.297436 -0.011428 0
+0.114984 -0.004418 0
+0.087902 -0.003377 0
-0.010022 +0.000385 0
+0.078473 -0.003015 0
+0.040007 -0.001537 0
-0.025821 +0.000992 0
+0.157852 -0.006065 0
+0.117248 -0.004505 0
+0.021617 -0.000831 0
+0.183056 -0.007033 0
+0.189836 -0.007294 0
+0.071599 -0.002751 0
+0.112286 -0.004314 0
-0.097141 +0.003732 0
-0.046965 +0.001804 0
-0.179597 +0.006900 0
-0.146315 +0.005621 0
-0.116006 +0.004457 0
-0.175871 +0.006757 0
-0.032920 +0.001265 0
+0.033607 -0.001291 0
+0.035283 -0.001356 0
+0.053910 -0.002071 0
+0.090020 -0.003459 0
+0.154923 -0.005952 0
+0.167023 -0.006417 0
+0.095694 -0.003677 0
+0.064525 -0.002479 0
+0.141653 -0.005442 0
+0.080907 -0.003108 0
+0.234565 -0.009012 0
+0.216205 -0.008307 0
+0.275399 -0.010581 0
+0.221688 -0.008517 0
+0.159141 -0.006114 0
+0.078029 -0.002998 0
+0.139345 -0.005354 0
+0.055824 -0.002145 0
+0.260319 -0.010002 0
+0.176704 -0.006789 0
+0.188430 -0.007240 0
+0.099486 -0.003822 0
+0.089015 -0.003420 0
+0.026025 -0.001000 0
+0.034796 -0.001337 0
+0.005575 -0.000214 0
+0.090986 -0.003496 0
+0.030314 -0.001165 0
+0.017451 -0.000670 0
+0.004417 -0.000170 0
+0.056778 -0.002181 0
+0.113513 -0.004361 0
+0.043540 -0.001673 0
+0.102669 -0.003945 0
+0.127512 -0.004899 0
+0.196588 -0.007553 0
+0.164728 -0.006329 0
+0.213885 -0.008218 0
+0.255392 -0.009812 0
+0.286051 -0.010990 0
+0.202861 -0.007794 0
+0.272317 -0.010463 0
+0.262718 -0.010094 0
+0.315111 -0.012107 0
+0.313822 -0.012057 0
+0.310952 -0.011947 0
+0.319742 -0.012285 0
+0.272168 -0.010457 0
+0.291808 -0.011211 0
+0.303263 -0.011652 0
+0.266007 -0.010220 0
+0.224600 -0.008629 0
+0.258678 -0.009939 0
+0.176916 -0.006797 0
+0.146881 -0.005643 0
+0.068283 -0.002623 0
+0.175564 -0.006745 0
+0.103943 -0.003994 0
+0.053404 -0.002052 0
+0.036578 -0.001405 0
+0.020144 -0.000774 0
+0.064714 -0.002486 0
-0.004915 +0.000189 0
+0.014326 -0.000550 0
-0.015452 +0.000594 0
+0.028134 -0.001081 0
+0.059348 -0.002280 0
+0.125964 -0.004840 0
+0.097536 -0.003747 0
+0.182170 -0.006999 0
-0.024606 +0.000945 0
+0.045816 -0.001760 0
-0.023067 +0.000886 0
+0.074601 -0.002866 0
+0.137503 -0.005283 0
+0.228878 -0.008794 0
+0.176500 -0.006781 0
+0.249043 -0.009568 0
+0.000710 -0.000027 0
+0.112788 -0.004333 0
+0.045929 -0.001765 0
+0.134219 -0.005157 0
+0.193832 -0.007447 0
+0.214661 -0.008247 0
+0.156064 -0.005996 0
+0.118149 -0.004539 0
+0.077464 -0.002976 0
+0.097234 -0.003736 0
+0.042411 -0.001629 0
+0.057970 -0.002227 0
-0.023187 +0.000891 0
-0.031066 +0.001194 0
-0.056406 +0.002167 0
-0.118391 +0.004549 0
-0.071698 +0.002755 0
-0.063581 +0.002443 0
-0.122619 +0.004711 0
-0.091947 +0.003533 0
-0.184155 +0.007075 0
-0.240505 +0.009240 0
-0.166406 +0.006393 0
-0.101946 +0.003917 0
-0.184101 +0.007073 0
-0.077146 +0.002964 0
-0.263993 +0.010143 0
-0.229573 +0.008820 0
-0.153782 +0.005908 0
-0.017822 +0.000685 0
-0.072550 +0.002787 0
+0.030659 -0.001178 0
-0.109939 +0.004224 0
+0.005694 -0.000219 0
