# vtk DataFile Version 2.0
MyTitle
ASCII
DATASET UNSTRUCTURED_GRID
POINTS 849 double
2.000000 0.000000 0.000000
3.000000 1.000000 0.000000
3.000000 2.000000 0.000000
2.000000 2.000000 0.000000
1.000000 2.000000 0.000000
1.000000 3.000000 0.000000
0.000000 2.000000 0.000000
0.500000 1.500000 0.000000
1.000000 1.000000 0.000000
2.000000 1.000000 0.000000
2.125000 0.125000 0.000000
2.250000 0.250000 0.000000
2.375000 0.375000 0.000000
2.500000 0.500000 0.000000
2.625000 0.625000 0.000000
2.750000 0.750000 0.000000
2.875000 0.875000 0.000000
2.062500 0.062500 0.000000
2.187500 0.187500 0.000000
2.312500 0.312500 0.000000
2.437500 0.437500 0.000000
2.562500 0.562500 0.000000
2.687500 0.687500 0.000000
2.812500 0.812500 0.000000
2.937500 0.937500 0.000000
3.000000 1.125000 0.000000
3.000000 1.250000 0.000000
3.000000 1.375000 0.000000
3.000000 1.500000 0.000000
3.000000 1.625000 0.000000
3.000000 1.750000 0.000000
3.000000 1.875000 0.000000
3.000000 1.062500 0.000000
3.000000 1.187500 0.000000
3.000000 1.312500 0.000000
3.000000 1.437500 0.000000
3.000000 1.562500 0.000000
3.000000 1.687500 0.000000
3.000000 1.812500 0.000000
3.000000 1.937500 0.000000
2.875000 2.000000 0.000000
2.750000 2.000000 0.000000
2.625000 2.000000 0.000000
2.500000 2.000000 0.000000
2.375000 2.000000 0.000000
2.250000 2.000000 0.000000
2.125000 2.000000 0.000000
2.937500 2.000000 0.000000
2.812500 2.000000 0.000000
2.687500 2.000000 0.000000
2.562500 2.000000 0.000000
2.437500 2.000000 0.000000
2.312500 2.000000 0.000000
2.187500 2.000000 0.000000
2.062500 2.000000 0.000000
1.875000 2.000000 0.000000
1.750000 2.000000 0.000000
1.625000 2.000000 0.000000
1.500000 2.000000 0.000000
1.375000 2.000000 0.000000
1.250000 2.000000 0.000000
1.125000 2.000000 0.000000
1.937500 2.000000 0.000000
1.812500 2.000000 0.000000
1.687500 2.000000 0.000000
1.562500 2.000000 0.000000
1.437500 2.000000 0.000000
1.312500 2.000000 0.000000
1.187500 2.000000 0.000000
1.062500 2.000000 0.000000
1.000000 2.125000 0.000000
1.000000 2.250000 0.000000
1.000000 2.375000 0.000000
1.000000 2.500000 0.000000
1.000000 2.625000 0.000000
1.000000 2.750000 0.000000
1.000000 2.875000 0.000000
1.000000 2.062500 0.000000
1.000000 2.187500 0.000000
1.000000 2.312500 0.000000
1.000000 2.437500 0.000000
1.000000 2.562500 0.000000
1.000000 2.687500 0.000000
1.000000 2.812500 0.000000
1.000000 2.937500 0.000000
0.875000 2.875000 0.000000
0.750000 2.750000 0.000000
0.625000 2.625000 0.000000
0.500000 2.500000 0.000000
0.375000 2.375000 0.000000
0.250000 2.250000 0.000000
0.125000 2.125000 0.000000
0.937500 2.937500 0.000000
0.812500 2.812500 0.000000
0.687500 2.687500 0.000000
0.562500 2.562500 0.000000
0.437500 2.437500 0.000000
0.312500 2.312500 0.000000
0.187500 2.187500 0.000000
0.062500 2.062500 0.000000
0.062500 1.937500 0.000000
0.125000 1.875000 0.000000
0.187500 1.812500 0.000000
0.250000 1.750000 0.000000
0.312500 1.687500 0.000000
0.375000 1.625000 0.000000
0.437500 1.562500 0.000000
0.031250 1.968750 0.000000
0.093750 1.906250 0.000000
0.156250 1.843750 0.000000
0.218750 1.781250 0.000000
0.281250 1.718750 0.000000
0.343750 1.656250 0.000000
0.406250 1.593750 0.000000
0.468750 1.531250 0.000000
0.562500 1.437500 0.000000
0.625000 1.375000 0.000000
0.687500 1.312500 0.000000
0.750000 1.250000 0.000000
0.812500 1.187500 0.000000
0.875000 1.125000 0.000000
0.937500 1.062500 0.000000
0.531250 1.468750 0.000000
0.593750 1.406250 0.000000
0.656250 1.343750 0.000000
0.718750 1.281250 0.000000
0.781250 1.218750 0.000000
0.843750 1.156250 0.000000
0.906250 1.093750 0.000000
0.968750 1.031250 0.000000
1.125000 1.000000 0.000000
1.250000 1.000000 0.000000
1.375000 1.000000 0.000000
1.500000 1.000000 0.000000
1.625000 1.000000 0.000000
1.750000 1.000000 0.000000
1.875000 1.000000 0.000000
1.062500 1.000000 0.000000
1.187500 1.000000 0.000000
1.312500 1.000000 0.000000
1.437500 1.000000 0.000000
1.562500 1.000000 0.000000
1.687500 1.000000 0.000000
1.812500 1.000000 0.000000
1.937500 1.000000 0.000000
2.000000 0.875000 0.000000
2.000000 0.750000 0.000000
2.000000 0.625000 0.000000
2.000000 0.500000 0.000000
2.000000 0.375000 0.000000
2.000000 0.250000 0.000000
2.000000 0.125000 0.000000
2.000000 0.937500 0.000000
2.000000 0.812500 0.000000
2.000000 0.687500 0.000000
2.000000 0.562500 0.000000
2.000000 0.437500 0.000000
2.000000 0.312500 0.000000
2.000000 0.187500 0.000000
2.000000 0.062500 0.000000
2.125000 1.125000 0.000000
2.250000 1.250000 0.000000
2.375000 1.375000 0.000000
2.500000 1.500000 0.000000
2.625000 1.625000 0.000000
2.750000 1.750000 0.000000
2.875000 1.875000 0.000000
2.062500 1.062500 0.000000
2.187500 1.187500 0.000000
2.312500 1.312500 0.000000
2.437500 1.437500 0.000000
2.562500 1.562500 0.000000
2.687500 1.687500 0.000000
2.812500 1.812500 0.000000
2.937500 1.937500 0.000000
1.125000 1.125000 0.000000
1.250000 1.250000 0.000000
1.375000 1.375000 0.000000
1.500000 1.500000 0.000000
1.625000 1.625000 0.000000
1.750000 1.750000 0.000000
1.875000 1.875000 0.000000
1.062500 1.062500 0.000000
1.187500 1.187500 0.000000
1.312500 1.312500 0.000000
1.437500 1.437500 0.000000
1.562500 1.562500 0.000000
1.687500 1.687500 0.000000
1.812500 1.812500 0.000000
1.937500 1.937500 0.000000
0.562500 1.562500 0.000000
0.625000 1.625000 0.000000
0.687500 1.687500 0.000000
0.750000 1.750000 0.000000
0.812500 1.812500 0.000000
0.875000 1.875000 0.000000
0.937500 1.937500 0.000000
0.531250 1.531250 0.000000
0.593750 1.593750 0.000000
0.656250 1.656250 0.000000
0.718750 1.718750 0.000000
0.781250 1.781250 0.000000
0.843750 1.843750 0.000000
0.906250 1.906250 0.000000
0.968750 1.968750 0.000000
2.250000 1.000000 0.000000
2.500000 1.250000 0.000000
2.750000 1.500000 0.000000
2.250000 0.750000 0.000000
2.500000 1.000000 0.000000
2.750000 1.250000 0.000000
2.250000 0.500000 0.000000
2.500000 0.750000 0.000000
2.750000 1.000000 0.000000
2.125000 0.875000 0.000000
2.250000 1.125000 0.000000
2.125000 1.000000 0.000000
2.375000 1.125000 0.000000
2.500000 1.375000 0.000000
2.375000 1.250000 0.000000
2.625000 1.375000 0.000000
2.750000 1.625000 0.000000
2.625000 1.500000 0.000000
2.875000 1.625000 0.000000
2.875000 1.750000 0.000000
2.125000 0.625000 0.000000
2.250000 0.875000 0.000000
2.125000 0.750000 0.000000
2.375000 0.875000 0.000000
2.500000 1.125000 0.000000
2.375000 1.000000 0.000000
2.625000 1.125000 0.000000
2.750000 1.375000 0.000000
2.625000 1.250000 0.000000
2.875000 1.375000 0.000000
2.875000 1.500000 0.000000
2.125000 0.375000 0.000000
2.250000 0.625000 0.000000
2.125000 0.500000 0.000000
2.375000 0.625000 0.000000
2.500000 0.875000 0.000000
2.375000 0.750000 0.000000
2.625000 0.875000 0.000000
2.750000 1.125000 0.000000
2.625000 1.000000 0.000000
2.875000 1.125000 0.000000
2.875000 1.250000 0.000000
2.250000 0.375000 0.000000
2.125000 0.250000 0.000000
2.500000 0.625000 0.000000
2.375000 0.500000 0.000000
2.750000 0.875000 0.000000
2.625000 0.750000 0.000000
2.875000 1.000000 0.000000
2.062500 0.937500 0.000000
2.125000 1.062500 0.000000
2.062500 0.812500 0.000000
2.125000 0.937500 0.000000
2.187500 0.937500 0.000000
2.250000 1.062500 0.000000
2.187500 1.062500 0.000000
2.250000 1.187500 0.000000
2.312500 1.187500 0.000000
2.375000 1.312500 0.000000
2.312500 1.062500 0.000000
2.375000 1.187500 0.000000
2.437500 1.187500 0.000000
2.500000 1.312500 0.000000
2.437500 1.312500 0.000000
2.500000 1.437500 0.000000
2.562500 1.437500 0.000000
2.625000 1.562500 0.000000
2.562500 1.312500 0.000000
2.625000 1.437500 0.000000
2.687500 1.437500 0.000000
2.750000 1.562500 0.000000
2.687500 1.562500 0.000000
2.750000 1.687500 0.000000
2.812500 1.687500 0.000000
2.875000 1.812500 0.000000
2.812500 1.562500 0.000000
2.875000 1.687500 0.000000
2.937500 1.687500 0.000000
2.937500 1.812500 0.000000
2.062500 0.687500 0.000000
2.125000 0.812500 0.000000
2.062500 0.562500 0.000000
2.125000 0.687500 0.000000
2.187500 0.687500 0.000000
2.250000 0.812500 0.000000
2.187500 0.812500 0.000000
2.250000 0.937500 0.000000
2.312500 0.937500 0.000000
2.375000 1.062500 0.000000
2.312500 0.812500 0.000000
2.375000 0.937500 0.000000
2.437500 0.937500 0.000000
2.500000 1.062500 0.000000
2.437500 1.062500 0.000000
2.500000 1.187500 0.000000
2.562500 1.187500 0.000000
2.625000 1.312500 0.000000
2.562500 1.062500 0.000000
2.625000 1.187500 0.000000
2.687500 1.187500 0.000000
2.750000 1.312500 0.000000
2.687500 1.312500 0.000000
2.750000 1.437500 0.000000
2.812500 1.437500 0.000000
2.875000 1.562500 0.000000
2.812500 1.312500 0.000000
2.875000 1.437500 0.000000
2.937500 1.437500 0.000000
2.937500 1.562500 0.000000
2.062500 0.437500 0.000000
2.125000 0.562500 0.000000
2.062500 0.312500 0.000000
2.125000 0.437500 0.000000
2.187500 0.437500 0.000000
2.250000 0.562500 0.000000
2.187500 0.562500 0.000000
2.250000 0.687500 0.000000
2.312500 0.687500 0.000000
2.375000 0.812500 0.000000
2.312500 0.562500 0.000000
2.375000 0.687500 0.000000
2.437500 0.687500 0.000000
2.500000 0.812500 0.000000
2.437500 0.812500 0.000000
2.500000 0.937500 0.000000
2.562500 0.937500 0.000000
2.625000 1.062500 0.000000
2.562500 0.812500 0.000000
2.625000 0.937500 0.000000
2.687500 0.937500 0.000000
2.750000 1.062500 0.000000
2.687500 1.062500 0.000000
2.750000 1.187500 0.000000
2.812500 1.187500 0.000000
2.875000 1.312500 0.000000
2.812500 1.062500 0.000000
2.875000 1.187500 0.000000
2.937500 1.187500 0.000000
2.937500 1.312500 0.000000
2.062500 0.187500 0.000000
2.125000 0.312500 0.000000
2.125000 0.187500 0.000000
2.250000 0.312500 0.000000
2.187500 0.312500 0.000000
2.250000 0.437500 0.000000
2.312500 0.437500 0.000000
2.375000 0.562500 0.000000
2.375000 0.437500 0.000000
2.500000 0.562500 0.000000
2.437500 0.562500 0.000000
2.500000 0.687500 0.000000
2.562500 0.687500 0.000000
2.625000 0.812500 0.000000
2.625000 0.687500 0.000000
2.750000 0.812500 0.000000
2.687500 0.812500 0.000000
2.750000 0.937500 0.000000
2.812500 0.937500 0.000000
2.875000 1.062500 0.000000
2.875000 0.937500 0.000000
2.937500 1.062500 0.000000
1.500000 1.250000 0.000000
[...]
POINT_DATA 849
VECTORS sol double
+0.000000 +0.000000 0
+0.000000 +0.000000 0
+0.000000 +0.000000 0
+0.000000 +0.000000 0
+0.000000 +0.000000 0
+0.000000 +0.000000 0
+0.000000 +0.000000 0
+0.000000 +0.000000 0
+0.000000 +0.000000 0
+0.000000 +0.000000 0
+0.000000 +0.000000 0
+0.000000 +0.000000 0
+0.000000 +0.000000 0
+0.000000 +0.000000 0
+0.000000 +0.000000 0
+0.000000 +0.000000 0
+0.000000 +0.000000 0
+0.000000 +0.000000 0
+0.000000 +0.000000 0
+0.000000 +0.000000 0
+0.000000 +0.000000 0
+0.000000 +0.000000 0
+0.000000 +0.000000 0
+0.000000 +0.000000 0
+0.000000 +0.000000 0
+0.000000 +0.000000 0
+0.000000 +0.000000 0
+0.000000 +0.000000 0
+0.000000 +0.000000 0
+0.000000 +0.000000 0
+0.000000 +0.000000 0
+0.000000 +0.000000 0
+0.000000 +0.000000 0
+0.000000 +0.000000 0
+0.000000 +0.000000 0
+0.000000 +0.000000 0
+0.000000 +0.000000 0
+0.000000 +0.000000 0
+0.000000 +0.000000 0
+0.000000 +0.000000 0
+0.000000 +0.000000 0
+0.000000 +0.000000 0
+0.000000 +0.000000 0
+0.000000 +0.000000 0
+0.000000 +0.000000 0
+0.000000 +0.000000 0
+0.000000 +0.000000 0
+0.000000 +0.000000 0
+0.000000 +0.000000 0
+0.000000 +0.000000 0
+0.000000 +0.000000 0
+0.000000 +0.000000 0
+0.000000 +0.000000 0
+0.000000 +0.000000 0
+0.000000 +0.000000 0
+0.000000 +0.000000 0
+0.000000 +0.000000 0
+0.000000 +0.000000 0
+0.000000 +0.000000 0
+0.000000 +0.000000 0
+0.000000 +0.000000 0
+0.000000 +0.000000 0
+0.000000 +0.000000 0
+0.000000 +0.000000 0
+0.000000 +0.000000 0
+0.000000 +0.000000 0
+0.000000 +0.000000 0
+0.000000 +0.000000 0
+0.000000 +0.000000 0
+0.000000 +0.000000 0
+0.000000 +0.000000 0
+0.000000 +0.000000 0
+0.000000 +0.000000 0
+0.000000 +0.000000 0
+0.000000 +0.000000 0
+0.000000 +0.000000 0
+0.000000 +0.000000 0
+0.000000 +0.000000 0
+0.000000 +0.000000 0
+0.000000 +0.000000 0
+0.000000 +0.000000 0
+0.000000 +0.000000 0
+0.000000 +0.000000 0
+0.000000 +0.000000 0
+0.000000 +0.000000 0
+0.000000 +0.000000 0
+0.000000 +0.000000 0
+0.000000 +0.000000 0
+0.000000 +0.000000 0
+0.000000 +0.000000 0
+0.000000 +0.000000 0
+0.000000 +0.000000 0
+0.000000 +0.000000 0
+0.000000 +0.000000 0
+0.000000 +0.000000 0
+0.000000 +0.000000 0
+0.000000 +0.000000 0
+0.000000 +0.000000 0
+0.000000 +0.000000 0
+0.000000 +0.000000 0
+0.000000 +0.000000 0
+0.000000 +0.000000 0
+0.000000 +0.000000 0
+0.000000 +0.000000 0
+0.000000 +0.000000 0
+0.000000 +0.000000 0
+0.000000 +0.000000 0
+0.000000 +0.000000 0
+0.000000 +0.000000 0
+0.000000 +0.000000 0
+0.000000 +0.000000 0
+0.000000 +0.000000 0
+0.000000 +0.000000 0
+0.000000 +0.000000 0
+0.000000 +0.000000 0
+0.000000 +0.000000 0
+0.000000 +0.000000 0
+0.000000 +0.000000 0
+0.000000 +0.000000 0
+0.000000 +0.000000 0
+0.000000 +0.000000 0
+0.000000 +0.000000 0
+0.000000 +0.000000 0
+0.000000 +0.000000 0
+0.000000 +0.000000 0
+0.000000 +0.000000 0
+0.000000 +0.000000 0
+0.000000 +0.000000 0
+0.000000 +0.000000 0
+0.000000 +0.000000 0
+0.000000 +0.000000 0
+0.000000 +0.000000 0
+0.000000 +0.000000 0
+0.000000 +0.000000 0
+0.000000 +0.000000 0
+0.000000 +0.000000 0
+0.000000 +0.000000 0
+0.000000 +0.000000 0
+0.000000 +0.000000 0
+0.000000 +0.000000 0
+0.000000 +0.000000 0
+0.000000 +0.000000 0
+0.000000 +0.000000 0
+0.000000 +0.000000 0
+0.000000 +0.000000 0
+0.000000 +0.000000 0
+0.000000 +0.000000 0
+0.000000 +0.000000 0
+0.000000 +0.000000 0
+0.000000 +0.000000 0
+0.000000 +0.000000 0
+0.000000 +0.000000 0
+0.000000 +0.000000 0
+0.000000 +0.000000 0
+0.000000 +0.000000 0
+0.000000 +0.000000 0
+0.000000 +0.000000 0
+0.000000 +0.000000 0
+0.000000 +0.000000 0
+0.000000 +0.000000 0
+0.154453 -0.057533 0
+0.106357 -0.039618 0
-0.015298 +0.005698 0
-0.113728 +0.042363 0
-0.136462 +0.050832 0
-0.091630 +0.034132 0
-0.028510 +0.010620 0
+0.109143 -0.040655 0
+0.148847 -0.055445 0
+0.048440 -0.018044 0
-0.071683 +0.026702 0
-0.135471 +0.050463 0
-0.120335 +0.044824 0
-0.059012 +0.021982 0
-0.007641 +0.002846 0
+0.354623 -0.132096 0
+0.700432 -0.260909 0
+0.735759 -0.274068 0
+0.413622 -0.154073 0
-0.075437 +0.028100 0
-0.420080 +0.156479 0
-0.390708 +0.145538 0
+0.150081 -0.055905 0
+0.554078 -0.206392 0
+0.765941 -0.285311 0
+0.611986 -0.227963 0
+0.170542 -0.063526 0
-0.284853 +0.106107 0
-0.458097 +0.170640 0
-0.228818 +0.085234 0
-0.188341 +0.070156 0
-0.353050 +0.131510 0
-0.473370 +0.176329 0
-0.533705 +0.198804 0
-0.525203 +0.195636 0
-0.443774 +0.165305 0
-0.290591 +0.108244 0
-0.095698 +0.035647 0
-0.275091 +0.102470 0
-0.419945 +0.156428 0
-0.511837 +0.190658 0
-0.538564 +0.200614 0
-0.493498 +0.183827 0
-0.381307 +0.142036 0
-0.157214 +0.058562 0
+0.725163 -0.270121 0
+0.633865 -0.236113 0
+0.149714 -0.055768 0
+0.681486 -0.253852 0
+1.048451 -0.390545 0
+0.568553 -0.211784 0
+0.275135 -0.102487 0
+0.686486 -0.255714 0
+0.613897 -0.228675 0
+0.427463 -0.159229 0
+0.490815 -0.182827 0
+0.359481 -0.133906 0
+0.782422 -0.291450 0
+0.246883 -0.091963 0
+0.418368 -0.155841 0
+0.383611 -0.142894 0
-0.016742 +0.006236 0
+0.078912 -0.029395 0
+0.017655 -0.006576 0
-0.028657 +0.010675 0
+0.295697 -0.110146 0
+0.780032 -0.290560 0
+0.390991 -0.145643 0
+0.973929 -0.362786 0
+0.930982 -0.346788 0
+0.980051 -0.365066 0
+0.888973 -0.331140 0
+0.367830 -0.137015 0
+0.687399 -0.256054 0
+0.221178 -0.082388 0
+0.108298 -0.040341 0
+0.085204 -0.031738 0
+0.489383 -0.182294 0
+0.182509 -0.067984 0
+0.508727 -0.189499 0
+0.954860 -0.355682 0
+0.791828 -0.294953 0
+0.730319 -0.272042 0
+0.671964 -0.250304 0
+0.910962 -0.339331 0
+0.349705 -0.130264 0
+0.317851 -0.118399 0
+0.100280 -0.037354 0
+0.023608 -0.008794 0
+0.332136 -0.123720 0
+0.217974 -0.081195 0
+0.373898 -0.139276 0
+0.393084 -0.146422 0
+0.252108 -0.093910 0
+0.204990 -0.076358 0
+0.279176 -0.103992 0
+0.214601 -0.079938 0
+0.409672 -0.152602 0
+0.603700 -0.224877 0
+0.630995 -0.235044 0
+0.456710 -0.170123 0
+0.312734 -0.116493 0
+0.473971 -0.176553 0
+0.202268 -0.075344 0
+0.784804 -0.292337 0
+0.616672 -0.229708 0
+0.728548 -0.271382 0
+0.444348 -0.165518 0
+0.338096 -0.125940 0
+0.055497 -0.020672 0
+0.156594 -0.058331 0
-0.044918 +0.016732 0
+0.513832 -0.191401 0
+0.224602 -0.083663 0
+0.257677 -0.095984 0
+0.056152 -0.020916 0
+0.019487 -0.007259 0
-0.066916 +0.024926 0
-0.031606 +0.011773 0
-0.033287 +0.012399 0
+0.067840 -0.025270 0
-0.011750 +0.004377 0
-0.002798 +0.001042 0
-0.014843 +0.005529 0
+0.180330 -0.067172 0
+0.418910 -0.156043 0
+0.125685 -0.046817 0
+0.347350 -0.129387 0
+0.488602 -0.182003 0
+0.746945 -0.278235 0
+0.599870 -0.223450 0
+0.775291 -0.288794 0
+0.911070 -0.339371 0
+0.906663 -0.337729 0
+0.849644 -0.316490 0
+1.002699 -0.373502 0
+1.042301 -0.388254 0
+1.016326 -0.378578 0
+0.985743 -0.367187 0
+0.800648 -0.298239 0
+0.827316 -0.308173 0
+0.541936 -0.201870 0
+0.995560 -0.370843 0
+0.807041 -0.300620 0
+0.741800 -0.276318 0
+0.475113 -0.176978 0
+0.528311 -0.196794 0
+0.255591 -0.095207 0
+0.222548 -0.082898 0
+0.057821 -0.021538 0
+0.387933 -0.144504 0
+0.163255 -0.060812 0
+0.086442 -0.032199 0
+0.033077 -0.012321 0
+0.070452 -0.026243 0
+0.238272 -0.088756 0
+0.028778 -0.010720 0
+0.129773 -0.048340 0
+0.169053 -0.062972 0
+0.380270 -0.141650 0
+0.326793 -0.121729 0
+0.592420 -0.220675 0
+0.650405 -0.242274 0
+0.901222 -0.335703 0
+0.392246 -0.146111 0
+0.656985 -0.244725 0
+0.610433 -0.227385 0
+0.838094 -0.312187 0
+0.897143 -0.334183 0
+1.027844 -0.382869 0
+0.960065 -0.357621 0
+0.925964 -0.344919 0
+0.728157 -0.271236 0
+0.845201 -0.314835 0
+0.692679 -0.258021 0
+0.666851 -0.248400 0
+0.812999 -0.302840 0
+0.637500 -0.237467 0
+0.502022 -0.187002 0
+0.273616 -0.101921 0
+0.498157 -0.185562 0
+0.345060 -0.128534 0
+0.174391 -0.064960 0
+0.141249 -0.052615 0
+0.006452 -0.002403 0
+0.049294 -0.018362 0
+0.007924 -0.002952 0
+0.039650 -0.014770 0
+0.054946 -0.020467 0
+0.179383 -0.066820 0
+0.155911 -0.058076 0
+0.358259 -0.133450 0
+0.095596 -0.035609 0
+0.156331 -0.058233 0
+0.278473 -0.103730 0
+0.513134 -0.191141 0
+0.371612 -0.138425 0
+0.576238 -0.214647 0
+0.196200 -0.073084 0
+0.196067 -0.073035 0
+0.394311 -0.146880 0
+0.515465 -0.192009 0
+0.328545 -0.122382 0
+0.321858 -0.119891 0
+0.153038 -0.057006 0
+0.154504 -0.057552 0
+0.353250 -0.131585 0
-0.460606 +0.171575 0
-0.839555 +0.312732 0
-0.213026 +0.079352 0
-0.937278 +0.349133 0
-0.758327 +0.282474 0
-0.378443 +0.140969 0
-0.680640 +0.253537 0
-0.384062 +0.143062 0
+0.325531 -0.121259 0
+0.587402 -0.218805 0
+0.384517 -0.143231 0
+0.029880 -0.011130 0
-0.025873 +0.009638 0
+0.425264 -0.158410 0
-0.824316 +0.307055 0
-0.687036 +0.255919 0
-0.494318 +0.184132 0
-0.495580 +0.184602 0
-0.479175 +0.178491 0
+0.045463 -0.016935 0
+0.059285 -0.022084 0
+0.200670 -0.074749 0
-0.615999 +0.229458 0
-0.788210 +0.293606 0
-0.350203 +0.130450 0
-0.996830 +0.371316 0
-0.858163 +0.319663 0
-0.999145 +0.372179 0
-0.354426 +0.132023 0
-0.446841 +0.166447 0
-0.160956 +0.059955 0
-0.379552 +0.141382 0
-0.093102 +0.034680 0
-0.585668 +0.218159 0
-0.888828 +0.331086 0
-0.699060 +0.260398 0
-0.600013 +0.223503 0
-0.582375 +0.216933 0
-0.843172 +0.314079 0
-0.147764 +0.055042 0
-0.246282 +0.091739 0
-0.196729 +0.073281 0
-0.083947 +0.031270 0
-0.391714 +0.145912 0
-0.325997 +0.121433 0
-0.211299 +0.078708 0
-0.343003 +0.127768 0
-0.074484 +0.027745 0
+0.194585 -0.072482 0
+0.382357 -0.142427 0
+0.186941 -0.069635 0
+0.365627 -0.136195 0
+0.386344 -0.143912 0
+0.482992 -0.179913 0
+0.525818 -0.195866 0
+0.662082 -0.246624 0
+0.553490 -0.206173 0
+0.597416 -0.222536 0
+0.228583 -0.085147 0
+0.232610 -0.086647 0
-0.212536 +0.079169 0
-0.250880 +0.093452 0
+0.221888 -0.082653 0
+0.200392 -0.074646 0
-0.278305 +0.103668 0
-0.290885 +0.108354 0
-0.676214 +0.251888 0
-0.676103 +0.251846 0
-0.882130 +0.328591 0
-0.780249 +0.290640 0
-0.638861 +0.237974 0
-0.565966 +0.210821 0
-0.631001 +0.235046 0
-0.444113 +0.165431 0
-0.703542 +0.262068 0
-0.496388 +0.184903 0
-0.247914 +0.092347 0
-0.256444 +0.095525 0
+0.138660 -0.051650 0
+0.270370 -0.100712 0
+0.065098 -0.024249 0
+0.125129 -0.046610 0
-0.052615 +0.019599 0
-0.084847 +0.031605 0
+0.173726 -0.064712 0
+0.209488 -0.078034 0
-0.124775 +0.046478 0
-0.168693 +0.062838 0
-0.410680 +0.152977 0
-0.503176 +0.187432 0
-0.800871 +0.298322 0
-0.888250 +0.330870 0
-0.583451 +0.217334 0
-0.643865 +0.239838 0
-0.934602 +0.348136 0
-0.934272 +0.348014 0
-1.006370 +0.374870 0
-1.019959 +0.379932 0
-0.909867 +0.338923 0
-0.820892 +0.305780 0
-0.972470 +0.362242 0
-0.865728 +0.322481 0
-0.673525 +0.250886 0
-0.477929 +0.178027 0
-0.563685 +0.209971 0
-0.403848 +0.150432 0
-0.158076 +0.058883 0
-0.210789 +0.078518 0
-0.011854 +0.004416 0
-0.028290 +0.010538 0
-0.065365 +0.024348 0
-0.139528 +0.051974 0
-0.265819 +0.099017 0
-0.403527 +0.150313 0
-0.222698 +0.082954 0
-0.314772 +0.117251 0
-0.546390 +0.203529 0
-0.683316 +0.254533 0
-0.489900 +0.182486 0
-0.665569 +0.247923 0
-0.653224 +0.243324 0
-0.800550 +0.298202 0
-0.819260 +0.305172 0
-0.937075 +0.349058 0
-0.897521 +0.334324 0
-0.935761 +0.348568 0
-0.662000 +0.246593 0
-0.727928 +0.271151 0
-0.502406 +0.187145 0
-0.482326 +0.179665 0
-0.732672 +0.272918 0
-0.676321 +0.251928 0
-0.412354 +0.153600 0
-0.300032 +0.111761 0
-0.260322 +0.096969 0
-0.194195 +0.072337 0
-0.058674 +0.021856 0
-0.103788 +0.038661 0
-0.059651 +0.022220 0
-0.146157 +0.054443 0
+0.006156 -0.002293 0
-0.051222 +0.019080 0
-0.135362 +0.050422 0
-0.307744 +0.114634 0
-0.263418 +0.098122 0
-0.469140 +0.174753 0
-0.170889 +0.063656 0
-0.245606 +0.091488 0
-0.371948 +0.138550 0
-0.540274 +0.201251 0
-0.381001 +0.141922 0
-0.468390 +0.174474 0
-0.230038 +0.085689 0
-0.143842 +0.053581 0
-0.282742 +0.105321 0
-0.291830 +0.108706 0
-0.138250 +0.051498 0
-0.107440 +0.040021 0
-0.048667 +0.018128 0
-0.027368 +0.010195 0
+0.043393 -0.016164 0
+0.135851 -0.050604 0
+0.202830 -0.075553 0
+0.507412 -0.189010 0
+0.699160 -0.260435 0
+0.397984 -0.148248 0
+0.778252 -0.289897 0
+0.811270 -0.302196 0
+0.132435 -0.049332 0
+0.016965 -0.006319 0
-0.178689 +0.066561 0
-0.099708 +0.037141 0
+0.084026 -0.031299 0
-0.214613 +0.079943 0
-0.220232 +0.082036 0
+0.184968 -0.068900 0
-0.068260 +0.025427 0
-0.161559 +0.060180 0
+0.146203 -0.054460 0
+0.010440 -0.003889 0
+0.272845 -0.101634 0
+0.283550 -0.105621 0
+0.147225 -0.054841 0
+0.661788 -0.246514 0
+0.457452 -0.170400 0
+0.393686 -0.146647 0
+0.603591 -0.224836 0
+0.358776 -0.133643 0
+0.452204 -0.168445 0
+0.159075 -0.059255 0
+0.186411 -0.069438 0
+0.431330 -0.160669 0
+0.681296 -0.253781 0
+0.373988 -0.139309 0
+0.924166 -0.344249 0
+0.823526 -0.306761 0
+0.847751 -0.315785 0
+0.493760 -0.183924 0
+0.318545 -0.118657 0
+0.618589 -0.230423 0
-0.074446 +0.027731 0
+0.066731 -0.024857 0
+0.783946 -0.292018 0
+0.427144 -0.159110 0
+0.665616 -0.247940 0
+0.882540 -0.328744 0
-0.129609 +0.048279 0
+0.248326 -0.092501 0
-0.237800 +0.088580 0
-0.051246 +0.019089 0
-0.148307 +0.055244 0
+0.007789 -0.002901 0
-0.044163 +0.016451 0
+0.028418 -0.010586 0
-0.072084 +0.026851 0
-0.143110 +0.053308 0
-0.273515 +0.101884 0
-0.205160 +0.076422 0
-0.355969 +0.132597 0
+0.061732 -0.022995 0
-0.071936 +0.026796 0
+0.108911 -0.040569 0
-0.039758 +0.014810 0
-0.223863 +0.083388 0
-0.382249 +0.142387 0
-0.194061 +0.072287 0
-0.346403 +0.129034 0
+0.162018 -0.060351 0
+0.018818 -0.007010 0
+0.201199 -0.074946 0
+0.081593 -0.030393 0
-0.119045 +0.044344 0
-0.251688 +0.093753 0
-0.021100 +0.007860 0
-0.096862 +0.036081 0
+0.186183 -0.069353 0
+0.094414 -0.035169 0
+0.079209 -0.029505 0
+0.033183 -0.012361 0
+0.074204 -0.027641 0
+0.081398 -0.030321 0
+0.138749 -0.051683 0
+0.211807 -0.078897 0
+0.397493 -0.148065 0
+0.399612 -0.148854 0
+0.217490 -0.081014 0
+0.163164 -0.060778 0
+0.342926 -0.127739 0
+0.241031 -0.089783 0
+0.597165 -0.222442 0
+0.535619 -0.199517 0
+0.696772 -0.259545 0
+0.591122 -0.220191 0
+0.432683 -0.161173 0
+0.303637 -0.113104 0
+0.464973 -0.173201 0
+0.331488 -0.123478 0
+0.667854 -0.248774 0
+0.544347 -0.202768 0
+0.511198 -0.190420 0
+0.393638 -0.146629 0
+0.417368 -0.155468 0
+0.296028 -0.110270 0
+0.280298 -0.104410 0
+0.175179 -0.065254 0
+0.275895 -0.102770 0
+0.181546 -0.067625 0
+0.062508 -0.023284 0
+0.089417 -0.033308 0
+0.191024 -0.071156 0
+0.327773 -0.122094 0
+0.220160 -0.082009 0
+0.409508 -0.152540 0
+0.622960 -0.232051 0
+0.740669 -0.275897 0
+0.540803 -0.201447 0
+0.602497 -0.224429 0
+0.786326 -0.292904 0
+0.767137 -0.285756 0
+0.882284 -0.328648 0
+0.900747 -0.335526 0
+0.899538 -0.335075 0
+0.835090 -0.311069 0
+0.860554 -0.320554 0
+0.777908 -0.289768 0
+0.740145 -0.275702 0
+0.629221 -0.234383 0
+0.670011 -0.249577 0
+0.573350 -0.213571 0
+0.305872 -0.113937 0
+0.237557 -0.088489 0
+0.472416 -0.175974 0
+0.373075 -0.138969 0
+0.176986 -0.065927 0
+0.120257 -0.044795 0
-0.001198 +0.000446 0
+0.000469 -0.000175 0
-0.075044 +0.027954 0
+0.004010 -0.001494 0
+0.214192 -0.079786 0
+0.438428 -0.163313 0
+0.401887 -0.149702 0
+0.751754 -0.280026 0
+0.627975 -0.233919 0
+0.792605 -0.295243 0
+0.872927 -0.325163 0
+0.917973 -0.341942 0
+0.820975 -0.305811 0
+0.550659 -0.205119 0
+0.810280 -0.301827 0
+0.754243 -0.280953 0
+0.468601 -0.174552 0
+0.384246 -0.143131 0
+0.093045 -0.034659 0
-0.274832 +0.102374 0
+0.037983 -0.014149 0
+0.008266 -0.003079 0
-0.227086 +0.084589 0
-0.155919 +0.058080 0
-0.318318 +0.118572 0
-0.158504 +0.059042 0
-0.653462 +0.243413 0
-0.685837 +0.255472 0
-0.256740 +0.095635 0
-0.919980 +0.342690 0
-1.121985 +0.417936 0
-0.581223 +0.216504 0
-0.756149 +0.281663 0
-1.040882 +0.387726 0
-0.683565 +0.254626 0
-0.378074 +0.140831 0
-0.361048 +0.134489 0
-0.213096 +0.079378 0
-0.758816 +0.282657 0
-0.345161 +0.128571 0
-0.404417 +0.150644 0
-0.487906 +0.181744 0
-0.102337 +0.038120 0
-0.224655 +0.083683 0
-0.079970 +0.029789 0
-0.024296 +0.009050 0
-0.514731 +0.191736 0
-0.844555 +0.314594 0
-0.480078 +0.178828 0
-1.133600 +0.422263 0
-0.960204 +0.357673 0
-1.012027 +0.376977 0
-0.910861 +0.339293 0
-0.430168 +0.160236 0
-0.733956 +0.273397 0
-0.244324 +0.091010 0
-0.159575 +0.059441 0
-0.411651 +0.153339 0
-0.883877 +0.329241 0
-0.487486 +0.181587 0
-0.977712 +0.364195 0
-1.148203 +0.427702 0
-1.116908 +0.416045 0
-0.936039 +0.348672 0
-0.673020 +0.250698 0
-0.982706 +0.366055 0
-0.341763 +0.127306 0
-0.311454 +0.116016 0
-0.567491 +0.211389 0
-0.305419 +0.113768 0
-0.823288 +0.306672 0
-0.748947 +0.278980 0
-0.608093 +0.226513 0
-0.777569 +0.289642 0
-0.330516 +0.123116 0
-0.111090 +0.041381 0
-0.111587 +0.041566 0
-0.196027 +0.073019 0
-0.303052 +0.112886 0
-0.534328 +0.199036 0
-0.518693 +0.193212 0
-0.298903 +0.111341 0
-0.186882 +0.069613 0
-0.397141 +0.147934 0
-0.204898 +0.076324 0
-0.729820 +0.271856 0
-0.591795 +0.220442 0
-0.742822 +0.276699 0
-0.520198 +0.193772 0
-0.386030 +0.143795 0
-0.168842 +0.062893 0
-0.288849 +0.107596 0
-0.103819 +0.038672 0
-0.597220 +0.222463 0
-0.354618 +0.132094 0
-0.370169 +0.137887 0
-0.174404 +0.064965 0
-0.159876 +0.059553 0
-0.042855 +0.015963 0
-0.055938 +0.020837 0
-0.008495 +0.003165 0
-0.157255 +0.058577 0
-0.048141 +0.017933 0
-0.027590 +0.010277 0
-0.006635 +0.002471 0
-0.247795 +0.092303 0
-0.437697 +0.163041 0
-0.264618 +0.098570 0
-0.505865 +0.188433 0
-0.737304 +0.274644 0
-0.897175 +0.334195 0
-0.683291 +0.254524 0
-0.763385 +0.284359 0
-0.956225 +0.356191 0
-0.900867 +0.335570 0
-1.054427 +0.392771 0
-1.090576 +0.406236 0
-1.156011 +0.430611 0
-1.057455 +0.393899 0
-1.012505 +0.377155 0
-0.834860 +0.310983 0
-0.863773 +0.321753 0
-0.616504 +0.229646 0
-1.037536 +0.386479 0
-0.833847 +0.310605 0
-0.754138 +0.280914 0
-0.510924 +0.190318 0
-0.584490 +0.217721 0
-0.343365 +0.127902 0
-0.284363 +0.105925 0
-0.117375 +0.043722 0
-0.406528 +0.151431 0
-0.202352 +0.075375 0
-0.105586 +0.039330 0
-0.063079 +0.023497 0
-0.249705 +0.093014 0
-0.508267 +0.189328 0
-0.210171 +0.078288 0
-0.454619 +0.169344 0
-0.596199 +0.222083 0
-0.829822 +0.309106 0
-0.702334 +0.261617 0
-0.915135 +0.340885 0
-1.024302 +0.381550 0
-1.142288 +0.425499 0
-0.885131 +0.329709 0
-1.061043 +0.395235 0
-1.030457 +0.383842 0
-1.110447 +0.413638 0
-1.158739 +0.431627 0
-1.152737 +0.429391 0
-1.088042 +0.405292 0
-0.961467 +0.358143 0
-1.009222 +0.375932 0
-0.974404 +0.362963 0
-0.825636 +0.307547 0
-0.689120 +0.256695 0
-0.840853 +0.313215 0
-0.636370 +0.237046 0
-0.492026 +0.183278 0
-0.281225 +0.104756 0
-0.518480 +0.193132 0
-0.332012 +0.123674 0
-0.165556 +0.061669 0
-0.143436 +0.053429 0
-0.155465 +0.057910 0
-0.361097 +0.134507 0
-0.246989 +0.092003 0
-0.461188 +0.171791 0
-0.444336 +0.165514 0
-0.667275 +0.248558 0
-0.670148 +0.249628 0
-0.872022 +0.324826 0
-0.614025 +0.228723 0
-0.684591 +0.255008 0
-0.800568 +0.298209 0
-0.943953 +0.351620 0
-0.815786 +0.303878 0
-0.870089 +0.324106 0
-0.660972 +0.246210 0
-0.540754 +0.201429 0
-0.708437 +0.263891 0
-0.656690 +0.244615 0
-0.481184 +0.179240 0
-0.340891 +0.126981 0
-0.310884 +0.115804 0
-0.164771 +0.061377 0
