# vtk DataFile Version 2.0
MyTitle
ASCII
DATASET UNSTRUCTURED_GRID
POINTS 601 double
2.000000 0.000000 0.000000
2.000000 1.000000 0.000000
3.000000 1.000000 0.000000
2.000000 2.000000 0.000000
1.000000 2.000000 0.000000
1.000000 3.000000 0.000000
0.000000 3.000000 0.000000
0.000000 2.000000 0.000000
1.000000 1.000000 0.000000
1.500000 1.500000 0.000000
2.500000 1.500000 0.000000
2.000000 0.166667 0.000000
2.000000 0.333333 0.000000
2.000000 0.500000 0.000000
2.000000 0.666667 0.000000
2.000000 0.833333 0.000000
2.000000 0.083333 0.000000
2.000000 0.250000 0.000000
2.000000 0.416667 0.000000
2.000000 0.583333 0.000000
2.000000 0.750000 0.000000
2.000000 0.916667 0.000000
2.166667 1.000000 0.000000
2.333333 1.000000 0.000000
2.500000 1.000000 0.000000
2.666667 1.000000 0.000000
2.833333 1.000000 0.000000
2.083333 1.000000 0.000000
2.250000 1.000000 0.000000
2.416667 1.000000 0.000000
2.583333 1.000000 0.000000
2.750000 1.000000 0.000000
2.916667 1.000000 0.000000
2.916667 1.083333 0.000000
2.833333 1.166667 0.000000
2.750000 1.250000 0.000000
2.666667 1.333333 0.000000
2.583333 1.416667 0.000000
2.958333 1.041667 0.000000
2.875000 1.125000 0.000000
2.791667 1.208333 0.000000
2.708333 1.291667 0.000000
2.625000 1.375000 0.000000
2.541667 1.458333 0.000000
1.833333 2.000000 0.000000
1.666667 2.000000 0.000000
1.500000 2.000000 0.000000
1.333333 2.000000 0.000000
1.166667 2.000000 0.000000
1.916667 2.000000 0.000000
1.750000 2.000000 0.000000
1.583333 2.000000 0.000000
1.416667 2.000000 0.000000
1.250000 2.000000 0.000000
1.083333 2.000000 0.000000
1.000000 2.166667 0.000000
1.000000 2.333333 0.000000
1.000000 2.500000 0.000000
1.000000 2.666667 0.000000
1.000000 2.833333 0.000000
1.000000 2.083333 0.000000
1.000000 2.250000 0.000000
1.000000 2.416667 0.000000
1.000000 2.583333 0.000000
1.000000 2.750000 0.000000
1.000000 2.916667 0.000000
0.833333 3.000000 0.000000
0.666667 3.000000 0.000000
0.500000 3.000000 0.000000
0.333333 3.000000 0.000000
0.166667 3.000000 0.000000
0.916667 3.000000 0.000000
0.750000 3.000000 0.000000
0.583333 3.000000 0.000000
0.416667 3.000000 0.000000
0.250000 3.000000 0.000000
0.083333 3.000000 0.000000
0.000000 2.833333 0.000000
0.000000 2.666667 0.000000
0.000000 2.500000 0.000000
0.000000 2.333333 0.000000
0.000000 2.166667 0.000000
0.000000 2.916667 0.000000
0.000000 2.750000 0.000000
0.000000 2.583333 0.000000
0.000000 2.416667 0.000000
0.000000 2.250000 0.000000
0.000000 2.083333 0.000000
0.166667 1.833333 0.000000
0.333333 1.666667 0.000000
0.500000 1.500000 0.000000
0.666667 1.333333 0.000000
0.833333 1.166667 0.000000
0.083333 1.916667 0.000000
0.250000 1.750000 0.000000
0.416667 1.583333 0.000000
0.583333 1.416667 0.000000
0.750000 1.250000 0.000000
0.916667 1.083333 0.000000
1.166667 0.833333 0.000000
1.333333 0.666667 0.000000
1.500000 0.500000 0.000000
1.666667 0.333333 0.000000
1.833333 0.166667 0.000000
1.083333 0.916667 0.000000
1.250000 0.750000 0.000000
1.416667 0.583333 0.000000
1.583333 0.416667 0.000000
1.750000 0.250000 0.000000
1.916667 0.083333 0.000000
1.916667 1.083333 0.000000
1.833333 1.166667 0.000000
1.750000 1.250000 0.000000
1.666667 1.333333 0.000000
1.583333 1.416667 0.000000
1.958333 1.041667 0.000000
1.875000 1.125000 0.000000
1.791667 1.208333 0.000000
1.708333 1.291667 0.000000
1.625000 1.375000 0.000000
1.541667 1.458333 0.000000
0.833333 2.000000 0.000000
0.666667 2.000000 0.000000
0.500000 2.000000 0.000000
0.333333 2.000000 0.000000
0.166667 2.000000 0.000000
0.916667 2.000000 0.000000
0.750000 2.000000 0.000000
0.583333 2.000000 0.000000
0.416667 2.000000 0.000000
0.250000 2.000000 0.000000
0.083333 2.000000 0.000000
1.416667 1.583333 0.000000
1.333333 1.666667 0.000000
1.250000 1.750000 0.000000
1.166667 1.833333 0.000000
1.083333 1.916667 0.000000
1.458333 1.541667 0.000000
1.375000 1.625000 0.000000
1.291667 1.708333 0.000000
1.208333 1.791667 0.000000
1.125000 1.875000 0.000000
1.041667 1.958333 0.000000
1.416667 1.416667 0.000000
1.333333 1.333333 0.000000
1.250000 1.250000 0.000000
1.166667 1.166667 0.000000
1.083333 1.083333 0.000000
1.458333 1.458333 0.000000
1.375000 1.375000 0.000000
1.291667 1.291667 0.000000
1.208333 1.208333 0.000000
1.125000 1.125000 0.000000
1.041667 1.041667 0.000000
2.416667 1.583333 0.000000
2.333333 1.666667 0.000000
2.250000 1.750000 0.000000
2.166667 1.833333 0.000000
2.083333 1.916667 0.000000
2.458333 1.541667 0.000000
2.375000 1.625000 0.000000
2.291667 1.708333 0.000000
2.208333 1.791667 0.000000
2.125000 1.875000 0.000000
2.041667 1.958333 0.000000
2.333333 1.500000 0.000000
2.166667 1.500000 0.000000
2.000000 1.500000 0.000000
1.833333 1.500000 0.000000
1.666667 1.500000 0.000000
2.416667 1.500000 0.000000
2.250000 1.500000 0.000000
2.083333 1.500000 0.000000
1.916667 1.500000 0.000000
1.750000 1.500000 0.000000
1.583333 1.500000 0.000000
2.166667 1.166667 0.000000
2.000000 1.333333 0.000000
2.500000 1.166667 0.000000
2.333333 1.333333 0.000000
2.250000 1.083333 0.000000
2.000000 1.166667 0.000000
2.083333 1.083333 0.000000
2.083333 1.250000 0.000000
1.833333 1.333333 0.000000
1.916667 1.250000 0.000000
1.916667 1.416667 0.000000
1.750000 1.416667 0.000000
2.583333 1.083333 0.000000
2.333333 1.166667 0.000000
2.416667 1.083333 0.000000
2.416667 1.250000 0.000000
2.166667 1.333333 0.000000
2.250000 1.250000 0.000000
2.250000 1.416667 0.000000
2.083333 1.416667 0.000000
2.666667 1.166667 0.000000
2.750000 1.083333 0.000000
2.500000 1.333333 0.000000
2.583333 1.250000 0.000000
2.416667 1.416667 0.000000
2.125000 1.041667 0.000000
2.000000 1.083333 0.000000
2.291667 1.041667 0.000000
2.166667 1.083333 0.000000
2.208333 1.125000 0.000000
2.083333 1.166667 0.000000
2.041667 1.125000 0.000000
1.916667 1.166667 0.000000
1.958333 1.208333 0.000000
1.833333 1.250000 0.000000
2.125000 1.208333 0.000000
2.000000 1.250000 0.000000
2.041667 1.291667 0.000000
1.916667 1.333333 0.000000
1.875000 1.291667 0.000000
1.750000 1.333333 0.000000
1.791667 1.375000 0.000000
1.666667 1.416667 0.000000
1.958333 1.375000 0.000000
1.833333 1.416667 0.000000
1.875000 1.458333 0.000000
1.708333 1.458333 0.000000
2.458333 1.041667 0.000000
2.333333 1.083333 0.000000
2.625000 1.041667 0.000000
2.500000 1.083333 0.000000
2.541667 1.125000 0.000000
2.416667 1.166667 0.000000
2.375000 1.125000 0.000000
2.250000 1.166667 0.000000
2.291667 1.208333 0.000000
2.166667 1.250000 0.000000
2.458333 1.208333 0.000000
2.333333 1.250000 0.000000
2.375000 1.291667 0.000000
2.250000 1.333333 0.000000
2.208333 1.291667 0.000000
2.083333 1.333333 0.000000
2.125000 1.375000 0.000000
2.000000 1.416667 0.000000
2.291667 1.375000 0.000000
2.166667 1.416667 0.000000
2.208333 1.458333 0.000000
2.041667 1.458333 0.000000
2.791667 1.041667 0.000000
2.666667 1.083333 0.000000
2.833333 1.083333 0.000000
2.750000 1.166667 0.000000
2.708333 1.125000 0.000000
2.583333 1.166667 0.000000
2.625000 1.208333 0.000000
2.500000 1.250000 0.000000
2.666667 1.250000 0.000000
2.583333 1.333333 0.000000
2.541667 1.291667 0.000000
2.416667 1.333333 0.000000
2.458333 1.375000 0.000000
2.333333 1.416667 0.000000
2.500000 1.416667 0.000000
2.375000 1.458333 0.000000
2.000000 1.666667 0.000000
1.833333 1.833333 0.000000
1.666667 1.666667 0.000000
1.500000 1.833333 0.000000
2.166667 1.666667 0.000000
2.083333 1.583333 0.000000
2.250000 1.583333 0.000000
2.000000 1.833333 0.000000
1.916667 1.750000 0.000000
2.083333 1.750000 0.000000
1.750000 1.916667 0.000000
1.916667 1.916667 0.000000
1.833333 1.666667 0.000000
1.750000 1.583333 0.000000
1.916667 1.583333 0.000000
1.666667 1.833333 0.000000
1.583333 1.750000 0.000000
1.750000 1.750000 0.000000
1.416667 1.916667 0.000000
1.583333 1.916667 0.000000
1.500000 1.666667 0.000000
1.583333 1.583333 0.000000
1.333333 1.833333 0.000000
1.416667 1.750000 0.000000
1.250000 1.916667 0.000000
2.333333 1.583333 0.000000
2.291667 1.541667 0.000000
2.250000 1.666667 0.000000
2.208333 1.625000 0.000000
2.083333 1.666667 0.000000
2.041667 1.625000 0.000000
2.166667 1.583333 0.000000
2.125000 1.541667 0.000000
2.166667 1.750000 0.000000
2.125000 1.708333 0.000000
2.083333 1.833333 0.000000
2.041667 1.791667 0.000000
1.916667 1.833333 0.000000
1.875000 1.791667 0.000000
2.000000 1.750000 0.000000
1.958333 1.708333 0.000000
2.000000 1.916667 0.000000
1.958333 1.875000 0.000000
1.875000 1.958333 0.000000
1.708333 1.958333 0.000000
1.833333 1.916667 0.000000
1.791667 1.875000 0.000000
2.000000 1.583333 0.000000
1.958333 1.541667 0.000000
1.916667 1.666667 0.000000
1.875000 1.625000 0.000000
1.750000 1.666667 0.000000
1.708333 1.625000 0.000000
1.833333 1.583333 0.000000
1.791667 1.541667 0.000000
1.833333 1.750000 0.000000
1.791667 1.708333 0.000000
1.750000 1.833333 0.000000
1.708333 1.791667 0.000000
1.583333 1.833333 0.000000
1.541667 1.791667 0.000000
1.666667 1.750000 0.000000
1.625000 1.708333 0.000000
1.666667 1.916667 0.000000
1.625000 1.875000 0.000000
1.541667 1.958333 0.000000
1.375000 1.958333 0.000000
1.500000 1.916667 0.000000
1.458333 1.875000 0.000000
1.666667 1.583333 0.000000
1.625000 1.541667 0.000000
1.583333 1.666667 0.000000
1.541667 1.625000 0.000000
1.416667 1.666667 0.000000
1.500000 1.583333 0.000000
1.500000 1.750000 0.000000
1.458333 1.708333 0.000000
1.416667 1.833333 0.000000
1.375000 1.791667 0.000000
1.250000 1.833333 0.000000
1.333333 1.750000 0.000000
1.333333 1.916667 0.000000
1.291667 1.875000 0.000000
1.208333 1.958333 0.000000
1.166667 1.916667 0.000000
0.666667 2.333333 0.000000
0.333333 2.333333 0.000000
0.666667 2.666667 0.000000
0.333333 2.666667 0.000000
0.833333 2.333333 0.000000
0.666667 2.166667 0.000000
0.833333 2.166667 0.000000
0.500000 2.333333 0.000000
0.333333 2.166667 0.000000
0.500000 2.166667 0.000000
0.166667 2.333333 0.000000
0.166667 2.166667 0.000000
0.833333 2.666667 0.000000
0.666667 2.500000 0.000000
0.833333 2.500000 0.000000
0.500000 2.666667 0.000000
0.333333 2.500000 0.000000
0.500000 2.500000 0.000000
0.166667 2.666667 0.000000
0.166667 2.500000 0.000000
0.666667 2.833333 0.000000
[...]
POINT_DATA 601
VECTORS sol double
+0.000000 +0.000000 0
+0.000000 +0.000000 0
+0.000000 +0.000000 0
+0.000000 +0.000000 0
+0.000000 +0.000000 0
+0.000000 +0.000000 0
+0.000000 +0.000000 0
+0.000000 +0.000000 0
+0.000000 +0.000000 0
+0.012402 +0.150096 0
+0.000000 +0.000000 0
+0.000000 +0.000000 0
+0.000000 +0.000000 0
+0.000000 +0.000000 0
+0.000000 +0.000000 0
+0.000000 +0.000000 0
+0.000000 +0.000000 0
+0.000000 +0.000000 0
+0.000000 +0.000000 0
+0.000000 +0.000000 0
+0.000000 +0.000000 0
+0.000000 +0.000000 0
+0.000000 +0.000000 0
+0.000000 +0.000000 0
+0.000000 +0.000000 0
+0.000000 +0.000000 0
+0.000000 +0.000000 0
+0.000000 +0.000000 0
+0.000000 +0.000000 0
+0.000000 +0.000000 0
+0.000000 +0.000000 0
+0.000000 +0.000000 0
+0.000000 +0.000000 0
+0.000000 +0.000000 0
+0.000000 +0.000000 0
+0.000000 +0.000000 0
+0.000000 +0.000000 0
+0.000000 +0.000000 0
+0.000000 +0.000000 0
+0.000000 +0.000000 0
+0.000000 +0.000000 0
+0.000000 +0.000000 0
+0.000000 +0.000000 0
+0.000000 +0.000000 0
+0.000000 +0.000000 0
+0.000000 +0.000000 0
+0.000000 +0.000000 0
+0.000000 +0.000000 0
+0.000000 +0.000000 0
+0.000000 +0.000000 0
+0.000000 +0.000000 0
+0.000000 +0.000000 0
+0.000000 +0.000000 0
+0.000000 +0.000000 0
+0.000000 +0.000000 0
+0.000000 +0.000000 0
+0.000000 +0.000000 0
+0.000000 +0.000000 0
+0.000000 +0.000000 0
+0.000000 +0.000000 0
+0.000000 +0.000000 0
+0.000000 +0.000000 0
+0.000000 +0.000000 0
+0.000000 +0.000000 0
+0.000000 +0.000000 0
+0.000000 +0.000000 0
+0.000000 +0.000000 0
+0.000000 +0.000000 0
+0.000000 +0.000000 0
+0.000000 +0.000000 0
+0.000000 +0.000000 0
+0.000000 +0.000000 0
+0.000000 +0.000000 0
+0.000000 +0.000000 0
+0.000000 +0.000000 0
+0.000000 +0.000000 0
+0.000000 +0.000000 0
+0.000000 +0.000000 0
+0.000000 +0.000000 0
+0.000000 +0.000000 0
+0.000000 +0.000000 0
+0.000000 +0.000000 0
+0.000000 +0.000000 0
+0.000000 +0.000000 0
+0.000000 +0.000000 0
+0.000000 +0.000000 0
+0.000000 +0.000000 0
+0.000000 +0.000000 0
+0.000000 +0.000000 0
+0.000000 +0.000000 0
+0.000000 +0.000000 0
+0.000000 +0.000000 0
+0.000000 +0.000000 0
+0.000000 +0.000000 0
+0.000000 +0.000000 0
+0.000000 +0.000000 0
+0.000000 +0.000000 0
+0.000000 +0.000000 0
+0.000000 +0.000000 0
+0.000000 +0.000000 0
+0.000000 +0.000000 0
+0.000000 +0.000000 0
+0.000000 +0.000000 0
+0.000000 +0.000000 0
+0.000000 +0.000000 0
+0.000000 +0.000000 0
+0.000000 +0.000000 0
+0.000000 +0.000000 0
+0.000000 +0.000000 0
+0.000000 +0.000000 0
-0.007093 -0.085842 0
+0.007126 +0.086236 0
+0.028128 +0.340414 0
+0.041212 +0.498755 0
+0.036054 +0.436337 0
-0.006272 -0.075911 0
-0.002041 -0.024702 0
+0.017638 +0.213456 0
+0.036470 +0.441370 0
+0.041227 +0.498941 0
+0.026183 +0.316879 0
+0.059600 +0.721301 0
+0.058517 +0.708193 0
-0.006477 -0.078388 0
-0.064981 -0.786414 0
-0.052477 -0.635091 0
+0.032511 +0.393457 0
+0.069291 +0.838583 0
+0.031086 +0.376210 0
-0.041518 -0.502460 0
-0.068860 -0.833370 0
-0.026219 -0.317306 0
-0.019749 -0.239013 0
-0.045451 -0.550064 0
-0.052812 -0.639150 0
-0.039462 -0.477581 0
-0.014580 -0.176449 0
-0.003458 -0.041845 0
-0.034290 -0.414987 0
-0.051856 -0.627574 0
-0.048458 -0.586454 0
-0.027289 -0.330265 0
-0.005311 -0.064274 0
+0.029249 +0.353975 0
+0.041456 +0.501711 0
+0.044868 +0.543004 0
+0.037757 +0.456947 0
+0.021481 +0.259970 0
+0.021030 +0.254507 0
+0.036237 +0.438547 0
+0.044501 +0.538560 0
+0.042734 +0.517176 0
+0.030732 +0.371924 0
+0.011236 +0.135979 0
+0.000000 +0.000000 0
+0.000000 +0.000000 0
+0.000000 +0.000000 0
+0.000000 +0.000000 0
+0.000000 +0.000000 0
+0.000000 +0.000000 0
+0.000000 +0.000000 0
+0.000000 +0.000000 0
+0.000000 +0.000000 0
+0.000000 +0.000000 0
+0.000000 +0.000000 0
-0.008516 -0.103067 0
-0.010369 -0.125490 0
-0.002557 -0.030949 0
+0.010201 +0.123453 0
+0.017974 +0.217522 0
-0.004656 -0.056353 0
-0.010648 -0.128869 0
-0.007564 -0.091542 0
+0.003769 +0.045613 0
+0.015401 +0.186390 0
+0.017137 +0.207395 0
-0.008238 -0.099699 0
+0.001596 +0.019310 0
-0.007189 -0.087005 0
-0.013343 -0.161482 0
-0.005370 -0.064987 0
-0.001995 -0.024144 0
-0.004368 -0.052866 0
-0.005792 -0.070102 0
+0.021367 +0.258591 0
+0.008347 +0.101014 0
+0.009065 +0.109710 0
+0.026772 +0.324001 0
-0.002890 -0.034982 0
-0.010205 -0.123509 0
-0.005172 -0.062592 0
-0.011245 -0.136088 0
-0.011088 -0.134189 0
-0.012633 -0.152887 0
-0.012757 -0.154394 0
-0.006574 -0.079563 0
-0.002580 -0.031228 0
-0.000764 -0.009249 0
-0.007361 -0.089082 0
-0.005065 -0.061303 0
-0.008617 -0.104289 0
-0.002032 -0.024595 0
-0.004102 -0.049640 0
-0.002953 -0.035733 0
-0.004717 -0.057085 0
-0.007344 -0.088879 0
-0.005518 -0.066779 0
-0.004203 -0.050864 0
+0.001574 +0.019045 0
+0.002183 +0.026423 0
+0.017595 +0.212938 0
-0.007735 -0.093610 0
+0.000480 +0.005808 0
-0.002545 -0.030805 0
+0.010906 +0.131986 0
+0.015114 +0.182920 0
+0.031906 +0.386132 0
+0.025597 +0.309779 0
+0.033162 +0.401334 0
+0.005688 +0.068835 0
+0.018299 +0.221466 0
+0.010750 +0.130096 0
+0.024318 +0.294305 0
-0.002394 -0.028972 0
-0.005637 -0.068225 0
-0.001181 -0.014292 0
-0.004126 -0.049938 0
-0.004939 -0.059769 0
-0.009167 -0.110940 0
-0.007852 -0.095025 0
-0.009890 -0.119687 0
-0.011875 -0.143717 0
-0.010261 -0.124182 0
-0.009358 -0.113254 0
-0.012873 -0.155789 0
-0.012621 -0.152743 0
-0.013540 -0.163867 0
-0.012377 -0.149794 0
-0.005978 -0.072343 0
-0.009060 -0.109652 0
+0.000382 +0.004628 0
-0.013390 -0.162050 0
-0.011097 -0.134300 0
-0.011701 -0.141614 0
-0.004269 -0.051663 0
-0.000257 -0.003115 0
-0.001684 -0.020386 0
-0.000214 -0.002594 0
-0.000910 -0.011016 0
-0.001537 -0.018601 0
-0.004802 -0.058118 0
-0.003765 -0.045564 0
-0.008372 -0.101320 0
-0.002074 -0.025096 0
-0.003370 -0.040789 0
-0.006279 -0.075985 0
-0.011015 -0.133303 0
-0.008152 -0.098662 0
-0.011749 -0.142189 0
-0.004337 -0.052494 0
-0.008740 -0.105778 0
-0.008545 -0.103414 0
-0.012787 -0.154748 0
-0.013818 -0.167229 0
-0.032337 -0.391358 0
-0.006649 -0.080467 0
-0.008322 -0.100717 0
-0.007529 -0.091118 0
-0.006980 -0.084477 0
-0.010950 -0.132525 0
-0.006611 -0.080004 0
-0.009978 -0.120752 0
-0.005529 -0.066917 0
-0.008570 -0.103714 0
+0.001645 +0.019911 0
-0.002843 -0.034411 0
-0.020835 -0.252149 0
-0.028134 -0.340481 0
-0.016612 -0.201038 0
-0.021923 -0.265321 0
-0.015702 -0.190030 0
-0.028089 -0.339939 0
-0.003452 -0.041775 0
-0.041987 -0.508134 0
-0.043667 -0.528473 0
-0.023854 -0.288685 0
-0.004364 -0.052812 0
-0.008104 -0.098079 0
-0.003851 -0.046606 0
-0.007035 -0.085140 0
-0.008152 -0.098664 0
-0.008094 -0.097953 0
-0.008923 -0.107992 0
-0.009178 -0.111075 0
-0.003583 -0.043357 0
-0.006515 -0.078851 0
-0.003640 -0.044052 0
-0.006816 -0.082486 0
-0.009822 -0.118875 0
-0.012181 -0.147415 0
-0.008936 -0.108148 0
-0.009576 -0.115886 0
-0.003273 -0.039613 0
-0.006650 -0.080479 0
-0.003512 -0.042502 0
-0.005857 -0.070881 0
-0.007701 -0.093203 0
-0.012165 -0.147221 0
-0.006028 -0.072954 0
-0.002005 -0.024268 0
-0.008354 -0.101098 0
-0.005100 -0.061727 0
-0.010100 -0.122234 0
-0.005590 -0.067657 0
+0.000153 +0.001846 0
+0.007148 +0.086504 0
-0.013244 -0.160289 0
-0.012615 -0.152666 0
-0.016323 -0.197548 0
-0.019583 -0.237005 0
-0.026346 -0.318847 0
-0.031945 -0.386609 0
-0.021532 -0.260585 0
-0.021688 -0.262475 0
-0.012625 -0.152791 0
-0.019654 -0.237861 0
-0.009062 -0.109676 0
-0.011992 -0.145136 0
-0.019020 -0.230183 0
-0.028984 -0.350771 0
+0.000682 +0.008256 0
+0.008459 +0.102373 0
-0.019928 -0.241178 0
-0.016114 -0.195017 0
-0.037192 -0.450104 0
-0.010538 -0.127530 0
-0.035911 -0.434610 0
-0.037709 -0.456361 0
-0.038022 -0.460153 0
-0.045216 -0.547222 0
-0.043035 -0.520823 0
-0.049963 -0.604670 0
-0.023919 -0.289478 0
-0.034621 -0.418996 0
-0.011703 -0.141636 0
-0.021154 -0.256015 0
+0.104040 +1.259121 0
-0.118597 -1.435302 0
+0.094214 +1.140206 0
-0.077100 -0.933082 0
+0.107442 +1.300300 0
+0.085176 +1.030821 0
+0.089194 +1.079456 0
-0.008882 -0.107489 0
-0.103356 -1.250845 0
-0.011653 -0.141030 0
-0.114854 -1.390001 0
-0.096624 -1.169379 0
+0.090646 +1.097024 0
+0.109622 +1.326675 0
+0.109239 +1.322042 0
+0.009828 +0.118937 0
-0.107220 -1.297611 0
+0.001228 +0.014866 0
-0.080658 -0.976144 0
-0.107530 -1.301366 0
+0.055140 +0.667318 0
+0.051783 +0.626691 0
-0.039183 -0.474210 0
+0.009196 +0.111297 0
-0.042538 -0.514813 0
+0.052127 +0.630854 0
+0.075906 +0.918637 0
+0.062396 +0.755136 0
+0.100285 +1.213675 0
+0.123046 +1.489143 0
+0.095982 +1.161602 0
+0.101854 +1.232669 0
+0.072612 +0.878767 0
+0.043563 +0.527208 0
-0.009807 -0.118685 0
+0.055971 +0.677374 0
-0.011511 -0.139313 0
-0.072878 -0.881995 0
-0.114628 -1.387268 0
-0.065706 -0.795194 0
-0.086087 -1.041854 0
-0.114627 -1.387252 0
-0.078248 -0.946987 0
-0.134306 -1.625414 0
-0.109392 -1.323897 0
-0.066084 -0.799773 0
-0.055482 -0.671462 0
+0.063162 +0.764409 0
+0.110906 +1.342219 0
+0.052143 +0.631052 0
+0.102855 +1.244785 0
+0.106132 +1.284447 0
+0.105137 +1.272399 0
+0.126501 +1.530951 0
+0.109229 +1.321917 0
+0.063948 +0.773923 0
-0.004282 -0.051817 0
+0.059083 +0.715038 0
+0.006356 +0.076922 0
-0.040011 -0.484226 0
-0.093973 -1.137288 0
-0.061484 -0.744099 0
-0.116177 -1.406010 0
-0.124314 -1.504487 0
-0.114368 -1.384117 0
-0.092045 -1.113962 0
-0.096229 -1.164595 0
-0.046941 -0.568092 0
-0.062221 -0.753022 0
+0.029681 +0.359209 0
+0.073622 +0.890992 0
+0.026834 +0.324758 0
+0.028757 +0.348023 0
+0.061102 +0.739478 0
+0.077592 +0.939041 0
+0.036193 +0.438014 0
+0.010893 +0.131826 0
+0.005263 +0.063694 0
-0.019629 -0.237562 0
-0.018367 -0.222278 0
-0.058675 -0.710099 0
-0.048015 -0.581089 0
-0.062641 -0.758103 0
-0.021551 -0.260820 0
-0.024877 -0.301066 0
-0.001663 -0.020122 0
-0.038675 -0.468052 0
+0.009974 +0.120711 0
-0.019279 -0.233319 0
+0.041708 +0.504760 0
-0.026098 -0.315846 0
+0.015342 +0.185677 0
-0.037481 -0.453611 0
-0.044889 -0.543262 0
-0.050188 -0.607394 0
-0.002924 -0.035384 0
-0.011645 -0.140929 0
-0.007228 -0.087477 0
+0.013096 +0.158497 0
+0.029817 +0.360853 0
-0.009065 -0.109704 0
-0.029292 -0.354497 0
-0.021442 -0.259494 0
+0.004828 +0.058431 0
+0.003203 +0.038764 0
-0.000053 -0.000642 0
-0.025461 -0.308141 0
-0.009538 -0.115437 0
-0.002430 -0.029407 0
+0.002689 +0.032548 0
+0.036232 +0.438495 0
-0.004025 -0.048707 0
+0.056161 +0.679675 0
+0.031814 +0.385029 0
+0.021163 +0.256118 0
-0.014073 -0.170321 0
-0.006768 -0.081905 0
-0.034656 -0.419416 0
-0.041147 -0.497971 0
-0.052956 -0.640884 0
-0.022742 -0.275228 0
-0.044901 -0.543400 0
-0.043393 -0.525150 0
-0.042375 -0.512830 0
-0.051629 -0.624829 0
-0.045939 -0.555962 0
-0.030837 -0.373196 0
-0.015988 -0.193492 0
-0.024275 -0.293789 0
-0.007155 -0.086588 0
+0.020724 +0.250809 0
+0.009502 +0.114997 0
+0.019199 +0.232348 0
+0.041178 +0.498347 0
-0.033664 -0.407411 0
+0.012192 +0.147552 0
+0.008025 +0.097116 0
+0.013620 +0.164829 0
+0.026818 +0.324562 0
+0.007772 +0.094057 0
-0.005037 -0.060961 0
-0.029507 -0.357103 0
+0.002601 +0.031480 0
-0.014600 -0.176698 0
-0.017998 -0.217820 0
-0.024386 -0.295123 0
-0.030715 -0.371716 0
-0.034277 -0.414826 0
-0.017122 -0.207219 0
+0.000630 +0.007629 0
-0.011148 -0.134913 0
+0.004583 +0.055462 0
+0.023387 +0.283038 0
+0.026073 +0.315546 0
-0.043803 -0.530118 0
-0.021115 -0.255544 0
-0.018913 -0.228889 0
-0.001889 -0.022856 0
-0.009377 -0.113485 0
+0.004995 +0.060453 0
+0.001767 +0.021388 0
-0.004970 -0.060148 0
-0.000484 -0.005863 0
-0.004773 -0.057760 0
-0.007511 -0.090905 0
-0.014480 -0.175236 0
-0.006084 -0.073631 0
+0.004029 +0.048760 0
+0.001056 +0.012779 0
+0.013464 +0.162942 0
+0.027666 +0.334821 0
-0.056308 -0.681458 0
-0.016822 -0.203584 0
-0.071386 -0.863929 0
+0.056705 +0.686258 0
+0.042811 +0.518114 0
+0.051968 +0.628929 0
-0.023825 -0.288332 0
-0.021255 -0.257235 0
+0.010016 +0.121218 0
-0.044149 -0.534302 0
-0.026369 -0.319131 0
+0.033237 +0.402238 0
+0.003063 +0.037066 0
+0.049199 +0.595422 0
-0.067423 -0.815977 0
-0.078126 -0.945501 0
-0.056560 -0.684507 0
-0.033668 -0.407465 0
-0.047455 -0.574319 0
-0.019041 -0.230436 0
+0.015080 +0.182498 0
-0.038561 -0.466679 0
-0.045779 -0.554033 0
-0.013123 -0.158816 0
+0.044156 +0.534390 0
+0.045098 +0.545791 0
+0.054561 +0.660308 0
+0.055954 +0.677170 0
+0.047217 +0.571432 0
+0.037172 +0.449866 0
+0.051391 +0.621953 0
+0.044206 +0.534992 0
+0.028110 +0.340199 0
+0.021778 +0.263570 0
+0.002206 +0.026703 0
-0.005705 -0.069039 0
-0.044864 -0.542953 0
-0.039150 -0.473800 0
-0.007520 -0.091008 0
-0.005299 -0.064125 0
-0.028052 -0.339494 0
-0.015971 -0.193288 0
-0.056041 -0.678230 0
-0.036600 -0.442939 0
-0.023985 -0.290271 0
-0.016559 -0.200399 0
+0.053877 +0.652032 0
+0.054436 +0.658795 0
+0.042291 +0.511818 0
+0.042042 +0.508801 0
+0.012016 +0.145417 0
-0.008419 -0.101891 0
+0.031166 +0.377186 0
+0.015802 +0.191246 0
-0.028687 -0.347178 0
-0.041763 -0.505430 0
-0.045966 -0.556289 0
-0.065958 -0.798243 0
-0.076586 -0.926861 0
-0.078865 -0.954448 0
-0.074437 -0.900863 0
-0.070304 -0.850845 0
-0.068072 -0.823832 0
-0.048242 -0.583843 0
-0.055154 -0.667486 0
-0.042194 -0.510642 0
-0.013312 -0.161105 0
-0.022424 -0.271382 0
+0.022895 +0.277088 0
+0.024197 +0.292845 0
+0.007063 +0.085481 0
-0.012141 -0.146938 0
-0.000187 -0.002268 0
-0.020771 -0.251382 0
-0.036089 -0.436756 0
-0.060876 -0.736737 0
-0.024842 -0.300641 0
-0.018118 -0.219271 0
-0.046544 -0.563288 0
-0.057328 -0.693801 0
-0.025712 -0.311175 0
-0.022987 -0.278201 0
-0.004804 -0.058139 0
-0.003889 -0.047062 0
