# vtk DataFile Version 2.0
MyTitle
ASCII
DATASET UNSTRUCTURED_GRID
POINTS 849 double
2.000000 0.000000 0.000000
3.000000 1.000000 0.000000
3.000000 2.000000 0.000000
2.000000 2.000000 0.000000
1.000000 2.000000 0.000000
1.000000 3.000000 0.000000
0.000000 2.000000 0.000000
0.500000 1.500000 0.000000
1.000000 1.000000 0.000000
2.000000 1.000000 0.000000
2.125000 0.125000 0.000000
2.250000 0.250000 0.000000
2.375000 0.375000 0.000000
2.500000 0.500000 0.000000
2.625000 0.625000 0.000000
2.750000 0.750000 0.000000
2.875000 0.875000 0.000000
2.062500 0.062500 0.000000
2.187500 0.187500 0.000000
2.312500 0.312500 0.000000
2.437500 0.437500 0.000000
2.562500 0.562500 0.000000
2.687500 0.687500 0.000000
2.812500 0.812500 0.000000
2.937500 0.937500 0.000000
3.000000 1.125000 0.000000
3.000000 1.250000 0.000000
3.000000 1.375000 0.000000
3.000000 1.500000 0.000000
3.000000 1.625000 0.000000
3.000000 1.750000 0.000000
3.000000 1.875000 0.000000
3.000000 1.062500 0.000000
3.000000 1.187500 0.000000
3.000000 1.312500 0.000000
3.000000 1.437500 0.000000
3.000000 1.562500 0.000000
3.000000 1.687500 0.000000
3.000000 1.812500 0.000000
3.000000 1.937500 0.000000
2.875000 2.000000 0.000000
2.750000 2.000000 0.000000
2.625000 2.000000 0.000000
2.500000 2.000000 0.000000
2.375000 2.000000 0.000000
2.250000 2.000000 0.000000
2.125000 2.000000 0.000000
2.937500 2.000000 0.000000
2.812500 2.000000 0.000000
2.687500 2.000000 0.000000
2.562500 2.000000 0.000000
2.437500 2.000000 0.000000
2.312500 2.000000 0.000000
2.187500 2.000000 0.000000
2.062500 2.000000 0.000000
1.875000 2.000000 0.000000
1.750000 2.000000 0.000000
1.625000 2.000000 0.000000
1.500000 2.000000 0.000000
1.375000 2.000000 0.000000
1.250000 2.000000 0.000000
1.125000 2.000000 0.000000
1.937500 2.000000 0.000000
1.812500 2.000000 0.000000
1.687500 2.000000 0.000000
1.562500 2.000000 0.000000
1.437500 2.000000 0.000000
1.312500 2.000000 0.000000
1.187500 2.000000 0.000000
1.062500 2.000000 0.000000
1.000000 2.125000 0.000000
1.000000 2.250000 0.000000
1.000000 2.375000 0.000000
1.000000 2.500000 0.000000
1.000000 2.625000 0.000000
1.000000 2.750000 0.000000
1.000000 2.875000 0.000000
1.000000 2.062500 0.000000
1.000000 2.187500 0.000000
1.000000 2.312500 0.000000
1.000000 2.437500 0.000000
1.000000 2.562500 0.000000
1.000000 2.687500 0.000000
1.000000 2.812500 0.000000
1.000000 2.937500 0.000000
0.875000 2.875000 0.000000
0.750000 2.750000 0.000000
0.625000 2.625000 0.000000
0.500000 2.500000 0.000000
0.375000 2.375000 0.000000
0.250000 2.250000 0.000000
0.125000 2.125000 0.000000
0.937500 2.937500 0.000000
0.812500 2.812500 0.000000
0.687500 2.687500 0.000000
0.562500 2.562500 0.000000
0.437500 2.437500 0.000000
0.312500 2.312500 0.000000
0.187500 2.187500 0.000000
0.062500 2.062500 0.000000
0.062500 1.937500 0.000000
0.125000 1.875000 0.000000
0.187500 1.812500 0.000000
0.250000 1.750000 0.000000
0.312500 1.687500 0.000000
0.375000 1.625000 0.000000
0.437500 1.562500 0.000000
0.031250 1.968750 0.000000
0.093750 1.906250 0.000000
0.156250 1.843750 0.000000
0.218750 1.781250 0.000000
0.281250 1.718750 0.000000
0.343750 1.656250 0.000000
0.406250 1.593750 0.000000
0.468750 1.531250 0.000000
0.562500 1.437500 0.000000
0.625000 1.375000 0.000000
0.687500 1.312500 0.000000
0.750000 1.250000 0.000000
0.812500 1.187500 0.000000
0.875000 1.125000 0.000000
0.937500 1.062500 0.000000
0.531250 1.468750 0.000000
0.593750 1.406250 0.000000
0.656250 1.343750 0.000000
0.718750 1.281250 0.000000
0.781250 1.218750 0.000000
0.843750 1.156250 0.000000
0.906250 1.093750 0.000000
0.968750 1.031250 0.000000
1.125000 1.000000 0.000000
1.250000 1.000000 0.000000
1.375000 1.000000 0.000000
1.500000 1.000000 0.000000
1.625000 1.000000 0.000000
1.750000 1.000000 0.000000
1.875000 1.000000 0.000000
1.062500 1.000000 0.000000
1.187500 1.000000 0.000000
1.312500 1.000000 0.000000
1.437500 1.000000 0.000000
1.562500 1.000000 0.000000
1.687500 1.000000 0.000000
1.812500 1.000000 0.000000
1.937500 1.000000 0.000000
2.000000 0.875000 0.000000
2.000000 0.750000 0.000000
2.000000 0.625000 0.000000
2.000000 0.500000 0.000000
2.000000 0.375000 0.000000
2.000000 0.250000 0.000000
2.000000 0.125000 0.000000
2.000000 0.937500 0.000000
2.000000 0.812500 0.000000
2.000000 0.687500 0.000000
2.000000 0.562500 0.000000
2.000000 0.437500 0.000000
2.000000 0.312500 0.000000
2.000000 0.187500 0.000000
2.000000 0.062500 0.000000
2.125000 1.125000 0.000000
2.250000 1.250000 0.000000
2.375000 1.375000 0.000000
2.500000 1.500000 0.000000
2.625000 1.625000 0.000000
2.750000 1.750000 0.000000
2.875000 1.875000 0.000000
2.062500 1.062500 0.000000
2.187500 1.187500 0.000000
2.312500 1.312500 0.000000
2.437500 1.437500 0.000000
2.562500 1.562500 0.000000
2.687500 1.687500 0.000000
2.812500 1.812500 0.000000
2.937500 1.937500 0.000000
1.125000 1.125000 0.000000
1.250000 1.250000 0.000000
1.375000 1.375000 0.000000
1.500000 1.500000 0.000000
1.625000 1.625000 0.000000
1.750000 1.750000 0.000000
1.875000 1.875000 0.000000
1.062500 1.062500 0.000000
1.187500 1.187500 0.000000
1.312500 1.312500 0.000000
1.437500 1.437500 0.000000
1.562500 1.562500 0.000000
1.687500 1.687500 0.000000
1.812500 1.812500 0.000000
1.937500 1.937500 0.000000
0.562500 1.562500 0.000000
0.625000 1.625000 0.000000
0.687500 1.687500 0.000000
0.750000 1.750000 0.000000
0.812500 1.812500 0.000000
0.875000 1.875000 0.000000
0.937500 1.937500 0.000000
0.531250 1.531250 0.000000
0.593750 1.593750 0.000000
0.656250 1.656250 0.000000
0.718750 1.718750 0.000000
0.781250 1.781250 0.000000
0.843750 1.843750 0.000000
0.906250 1.906250 0.000000
0.968750 1.968750 0.000000
2.250000 1.000000 0.000000
2.500000 1.250000 0.000000
2.750000 1.500000 0.000000
2.250000 0.750000 0.000000
2.500000 1.000000 0.000000
2.750000 1.250000 0.000000
2.250000 0.500000 0.000000
2.500000 0.750000 0.000000
2.750000 1.000000 0.000000
2.125000 0.875000 0.000000
2.250000 1.125000 0.000000
2.125000 1.000000 0.000000
2.375000 1.125000 0.000000
2.500000 1.375000 0.000000
2.375000 1.250000 0.000000
2.625000 1.375000 0.000000
2.750000 1.625000 0.000000
2.625000 1.500000 0.000000
2.875000 1.625000 0.000000
2.875000 1.750000 0.000000
2.125000 0.625000 0.000000
2.250000 0.875000 0.000000
2.125000 0.750000 0.000000
2.375000 0.875000 0.000000
2.500000 1.125000 0.000000
2.375000 1.000000 0.000000
2.625000 1.125000 0.000000
2.750000 1.375000 0.000000
2.625000 1.250000 0.000000
2.875000 1.375000 0.000000
2.875000 1.500000 0.000000
2.125000 0.375000 0.000000
2.250000 0.625000 0.000000
2.125000 0.500000 0.000000
2.375000 0.625000 0.000000
2.500000 0.875000 0.000000
2.375000 0.750000 0.000000
2.625000 0.875000 0.000000
2.750000 1.125000 0.000000
2.625000 1.000000 0.000000
2.875000 1.125000 0.000000
2.875000 1.250000 0.000000
2.250000 0.375000 0.000000
2.125000 0.250000 0.000000
2.500000 0.625000 0.000000
2.375000 0.500000 0.000000
2.750000 0.875000 0.000000
2.625000 0.750000 0.000000
2.875000 1.000000 0.000000
2.062500 0.937500 0.000000
2.125000 1.062500 0.000000
2.062500 0.812500 0.000000
2.125000 0.937500 0.000000
2.187500 0.937500 0.000000
2.250000 1.062500 0.000000
2.187500 1.062500 0.000000
2.250000 1.187500 0.000000
2.312500 1.187500 0.000000
2.375000 1.312500 0.000000
2.312500 1.062500 0.000000
2.375000 1.187500 0.000000
2.437500 1.187500 0.000000
2.500000 1.312500 0.000000
2.437500 1.312500 0.000000
2.500000 1.437500 0.000000
2.562500 1.437500 0.000000
2.625000 1.562500 0.000000
2.562500 1.312500 0.000000
2.625000 1.437500 0.000000
2.687500 1.437500 0.000000
2.750000 1.562500 0.000000
2.687500 1.562500 0.000000
2.750000 1.687500 0.000000
2.812500 1.687500 0.000000
2.875000 1.812500 0.000000
2.812500 1.562500 0.000000
2.875000 1.687500 0.000000
2.937500 1.687500 0.000000
2.937500 1.812500 0.000000
2.062500 0.687500 0.000000
2.125000 0.812500 0.000000
2.062500 0.562500 0.000000
2.125000 0.687500 0.000000
2.187500 0.687500 0.000000
2.250000 0.812500 0.000000
2.187500 0.812500 0.000000
2.250000 0.937500 0.000000
2.312500 0.937500 0.000000
2.375000 1.062500 0.000000
2.312500 0.812500 0.000000
2.375000 0.937500 0.000000
2.437500 0.937500 0.000000
2.500000 1.062500 0.000000
2.437500 1.062500 0.000000
2.500000 1.187500 0.000000
2.562500 1.187500 0.000000
2.625000 1.312500 0.000000
2.562500 1.062500 0.000000
2.625000 1.187500 0.000000
2.687500 1.187500 0.000000
2.750000 1.312500 0.000000
2.687500 1.312500 0.000000
2.750000 1.437500 0.000000
2.812500 1.437500 0.000000
2.875000 1.562500 0.000000
2.812500 1.312500 0.000000
2.875000 1.437500 0.000000
2.937500 1.437500 0.000000
2.937500 1.562500 0.000000
2.062500 0.437500 0.000000
2.125000 0.562500 0.000000
2.062500 0.312500 0.000000
2.125000 0.437500 0.000000
2.187500 0.437500 0.000000
2.250000 0.562500 0.000000
2.187500 0.562500 0.000000
2.250000 0.687500 0.000000
2.312500 0.687500 0.000000
2.375000 0.812500 0.000000
2.312500 0.562500 0.000000
2.375000 0.687500 0.000000
2.437500 0.687500 0.000000
2.500000 0.812500 0.000000
2.437500 0.812500 0.000000
2.500000 0.937500 0.000000
2.562500 0.937500 0.000000
2.625000 1.062500 0.000000
2.562500 0.812500 0.000000
2.625000 0.937500 0.000000
2.687500 0.937500 0.000000
2.750000 1.062500 0.000000
2.687500 1.062500 0.000000
2.750000 1.187500 0.000000
2.812500 1.187500 0.000000
2.875000 1.312500 0.000000
2.812500 1.062500 0.000000
2.875000 1.187500 0.000000
2.937500 1.187500 0.000000
2.937500 1.312500 0.000000
2.062500 0.187500 0.000000
2.125000 0.312500 0.000000
2.125000 0.187500 0.000000
2.250000 0.312500 0.000000
2.187500 0.312500 0.000000
2.250000 0.437500 0.000000
2.312500 0.437500 0.000000
2.375000 0.562500 0.000000
2.375000 0.437500 0.000000
2.500000 0.562500 0.000000
2.437500 0.562500 0.000000
2.500000 0.687500 0.000000
2.562500 0.687500 0.000000
2.625000 0.812500 0.000000
2.625000 0.687500 0.000000
2.750000 0.812500 0.000000
2.687500 0.812500 0.000000
2.750000 0.937500 0.000000
2.812500 0.937500 0.000000
2.875000 1.062500 0.000000
2.875000 0.937500 0.000000
2.937500 1.062500 0.000000
1.500000 1.250000 0.000000
[...]
POINT_DATA 849
VECTORS sol double
+0.000000 +0.000000 0
+0.000000 +0.000000 0
+0.000000 +0.000000 0
+0.000000 +0.000000 0
+0.000000 +0.000000 0
+0.000000 +0.000000 0
+0.000000 +0.000000 0
+0.000000 +0.000000 0
+0.000000 +0.000000 0
+0.000000 +0.000000 0
+0.000000 +0.000000 0
+0.000000 +0.000000 0
+0.000000 +0.000000 0
+0.000000 +0.000000 0
+0.000000 +0.000000 0
+0.000000 +0.000000 0
+0.000000 +0.000000 0
+0.000000 +0.000000 0
+0.000000 +0.000000 0
+0.000000 +0.000000 0
+0.000000 +0.000000 0
+0.000000 +0.000000 0
+0.000000 +0.000000 0
+0.000000 +0.000000 0
+0.000000 +0.000000 0
+0.000000 +0.000000 0
+0.000000 +0.000000 0
+0.000000 +0.000000 0
+0.000000 +0.000000 0
+0.000000 +0.000000 0
+0.000000 +0.000000 0
+0.000000 +0.000000 0
+0.000000 +0.000000 0
+0.000000 +0.000000 0
+0.000000 +0.000000 0
+0.000000 +0.000000 0
+0.000000 +0.000000 0
+0.000000 +0.000000 0
+0.000000 +0.000000 0
+0.000000 +0.000000 0
+0.000000 +0.000000 0
+0.000000 +0.000000 0
+0.000000 +0.000000 0
+0.000000 +0.000000 0
+0.000000 +0.000000 0
+0.000000 +0.000000 0
+0.000000 +0.000000 0
+0.000000 +0.000000 0
+0.000000 +0.000000 0
+0.000000 +0.000000 0
+0.000000 +0.000000 0
+0.000000 +0.000000 0
+0.000000 +0.000000 0
+0.000000 +0.000000 0
+0.000000 +0.000000 0
+0.000000 +0.000000 0
+0.000000 +0.000000 0
+0.000000 +0.000000 0
+0.000000 +0.000000 0
+0.000000 +0.000000 0
+0.000000 +0.000000 0
+0.000000 +0.000000 0
+0.000000 +0.000000 0
+0.000000 +0.000000 0
+0.000000 +0.000000 0
+0.000000 +0.000000 0
+0.000000 +0.000000 0
+0.000000 +0.000000 0
+0.000000 +0.000000 0
+0.000000 +0.000000 0
+0.000000 +0.000000 0
+0.000000 +0.000000 0
+0.000000 +0.000000 0
+0.000000 +0.000000 0
+0.000000 +0.000000 0
+0.000000 +0.000000 0
+0.000000 +0.000000 0
+0.000000 +0.000000 0
+0.000000 +0.000000 0
+0.000000 +0.000000 0
+0.000000 +0.000000 0
+0.000000 +0.000000 0
+0.000000 +0.000000 0
+0.000000 +0.000000 0
+0.000000 +0.000000 0
+0.000000 +0.000000 0
+0.000000 +0.000000 0
+0.000000 +0.000000 0
+0.000000 +0.000000 0
+0.000000 +0.000000 0
+0.000000 +0.000000 0
+0.000000 +0.000000 0
+0.000000 +0.000000 0
+0.000000 +0.000000 0
+0.000000 +0.000000 0
+0.000000 +0.000000 0
+0.000000 +0.000000 0
+0.000000 +0.000000 0
+0.000000 +0.000000 0
+0.000000 +0.000000 0
+0.000000 +0.000000 0
+0.000000 +0.000000 0
+0.000000 +0.000000 0
+0.000000 +0.000000 0
+0.000000 +0.000000 0
+0.000000 +0.000000 0
+0.000000 +0.000000 0
+0.000000 +0.000000 0
+0.000000 +0.000000 0
+0.000000 +0.000000 0
+0.000000 +0.000000 0
+0.000000 +0.000000 0
+0.000000 +0.000000 0
+0.000000 +0.000000 0
+0.000000 +0.000000 0
+0.000000 +0.000000 0
+0.000000 +0.000000 0
+0.000000 +0.000000 0
+0.000000 +0.000000 0
+0.000000 +0.000000 0
+0.000000 +0.000000 0
+0.000000 +0.000000 0
+0.000000 +0.000000 0
+0.000000 +0.000000 0
+0.000000 +0.000000 0
+0.000000 +0.000000 0
+0.000000 +0.000000 0
+0.000000 +0.000000 0
+0.000000 +0.000000 0
+0.000000 +0.000000 0
+0.000000 +0.000000 0
+0.000000 +0.000000 0
+0.000000 +0.000000 0
+0.000000 +0.000000 0
+0.000000 +0.000000 0
+0.000000 +0.000000 0
+0.000000 +0.000000 0
+0.000000 +0.000000 0
+0.000000 +0.000000 0
+0.000000 +0.000000 0
+0.000000 +0.000000 0
+0.000000 +0.000000 0
+0.000000 +0.000000 0
+0.000000 +0.000000 0
+0.000000 +0.000000 0
+0.000000 +0.000000 0
+0.000000 +0.000000 0
+0.000000 +0.000000 0
+0.000000 +0.000000 0
+0.000000 +0.000000 0
+0.000000 +0.000000 0
+0.000000 +0.000000 0
+0.000000 +0.000000 0
+0.000000 +0.000000 0
+0.000000 +0.000000 0
+0.000000 +0.000000 0
+0.000000 +0.000000 0
+0.000000 +0.000000 0
+0.000000 +0.000000 0
+0.000000 +0.000000 0
+0.420416 +0.058529 0
+0.707145 +0.098446 0
+0.857411 +0.119366 0
+0.822607 +0.114521 0
+0.620154 +0.086336 0
+0.336415 +0.046835 0
+0.094503 +0.013156 0
+0.228437 +0.031802 0
+0.579252 +0.080642 0
+0.802699 +0.111749 0
+0.864110 +0.120299 0
+0.738852 +0.102861 0
+0.481798 +0.067074 0
+0.203200 +0.028289 0
+0.024552 +0.003418 0
-0.401465 -0.055891 0
-0.873097 -0.121550 0
-1.150110 -0.160115 0
-1.132451 -0.157656 0
-0.856838 -0.119286 0
-0.466421 -0.064934 0
-0.137096 -0.019086 0
-0.166758 -0.023215 0
-0.650306 -0.090533 0
-1.045475 -0.145548 0
-1.178813 -0.164110 0
-1.019404 -0.141918 0
-0.664602 -0.092524 0
-0.284028 -0.039541 0
-0.039664 -0.005522 0
-0.257898 -0.035904 0
-0.488114 -0.067954 0
-0.665018 -0.092582 0
-0.766678 -0.106734 0
-0.776295 -0.108073 0
-0.678816 -0.094502 0
-0.462482 -0.064385 0
-0.130714 -0.018198 0
-0.378168 -0.052647 0
-0.584751 -0.081407 0
-0.726486 -0.101139 0
-0.784123 -0.109163 0
-0.741419 -0.103218 0
-0.594976 -0.082831 0
-0.255063 -0.035509 0
+0.562004 +0.078240 0
+0.900685 +0.125390 0
+0.565056 +0.078665 0
+0.310217 +0.043187 0
+0.692343 +0.096386 0
+0.599460 +0.083455 0
+0.098052 +0.013651 0
+0.318436 +0.044332 0
+0.394887 +0.054975 0
+0.251159 +0.034966 0
+0.659918 +0.091872 0
+0.337165 +0.046939 0
+0.805880 +0.112192 0
+0.898919 +0.125145 0
+0.866697 +0.120659 0
+0.811522 +0.112978 0
+0.470803 +0.065544 0
+0.747474 +0.104061 0
+0.253378 +0.035275 0
+0.181710 +0.025297 0
+0.115377 +0.016062 0
+0.438463 +0.061041 0
+0.179004 +0.024920 0
+0.529573 +0.073725 0
+0.828400 +0.115327 0
+0.686200 +0.095530 0
+0.727926 +0.101340 0
+0.610346 +0.084970 0
+0.805463 +0.112134 0
+0.326553 +0.045462 0
+0.303551 +0.042259 0
+0.027640 +0.003848 0
+0.192880 +0.026852 0
+0.063839 +0.008888 0
+0.204686 +0.028496 0
+0.513060 +0.071427 0
+0.361074 +0.050268 0
+0.396435 +0.055190 0
+0.527685 +0.073463 0
+0.585777 +0.081550 0
+0.270621 +0.037675 0
+0.317667 +0.044225 0
+0.033306 +0.004637 0
+0.007270 +0.001012 0
+0.138663 +0.019304 0
+0.080228 +0.011169 0
+0.210144 +0.029256 0
+0.189207 +0.026341 0
+0.165907 +0.023097 0
+0.152609 +0.021246 0
+0.377586 +0.052566 0
+0.111011 +0.015455 0
+0.291574 +0.040592 0
+0.408043 +0.056806 0
+0.616457 +0.085821 0
+0.508781 +0.070831 0
+0.692774 +0.096446 0
+0.782524 +0.108940 0
+0.870698 +0.121216 0
+0.698554 +0.097250 0
+0.844703 +0.117597 0
+0.875352 +0.121864 0
+0.909479 +0.126615 0
+0.906632 +0.126218 0
+0.869976 +0.121115 0
+0.844106 +0.117514 0
+0.691045 +0.096205 0
+0.879130 +0.122390 0
+0.788058 +0.109711 0
+0.703522 +0.097942 0
+0.523566 +0.072889 0
+0.618415 +0.086094 0
+0.407856 +0.056780 0
+0.319672 +0.044504 0
+0.139402 +0.019407 0
+0.409782 +0.057048 0
+0.219753 +0.030593 0
+0.111948 +0.015585 0
+0.071106 +0.009899 0
+0.075879 +0.010564 0
+0.213764 +0.029760 0
+0.046170 +0.006428 0
+0.145771 +0.020294 0
+0.205207 +0.028568 0
+0.373599 +0.052011 0
+0.303250 +0.042217 0
+0.501708 +0.069846 0
+0.570142 +0.079373 0
+0.752351 +0.104740 0
+0.421689 +0.058706 0
+0.610951 +0.085055 0
+0.622998 +0.086732 0
+0.767427 +0.106839 0
+0.775314 +0.107937 0
+0.873603 +0.121620 0
+0.839551 +0.116879 0
+0.817705 +0.113838 0
+0.729453 +0.101552 0
+0.775672 +0.107987 0
+0.684680 +0.095319 0
+0.612451 +0.085263 0
+0.727333 +0.101257 0
+0.594445 +0.082757 0
+0.464487 +0.064664 0
+0.281469 +0.039185 0
+0.476923 +0.066396 0
+0.318729 +0.044372 0
+0.162049 +0.022560 0
+0.143276 +0.019946 0
+0.023593 +0.003285 0
+0.087735 +0.012214 0
+0.009053 +0.001260 0
+0.043681 +0.006081 0
+0.057343 +0.007983 0
+0.141910 +0.019756 0
+0.120976 +0.016842 0
+0.249212 +0.034694 0
+0.274962 +0.038279 0
+0.445097 +0.061965 0
+0.148118 +0.020620 0
+0.279816 +0.038955 0
+0.263093 +0.036627 0
+0.415639 +0.057864 0
+0.443058 +0.061681 0
+0.606510 +0.084436 0
+0.562982 +0.078377 0
+0.664317 +0.092484 0
+0.364635 +0.050763 0
+0.495482 +0.068979 0
+0.408520 +0.056873 0
+0.469222 +0.065324 0
+0.575649 +0.080140 0
+0.571695 +0.079590 0
+0.441317 +0.061439 0
+0.326441 +0.045446 0
+0.350473 +0.048792 0
+0.299814 +0.041739 0
+0.150738 +0.020985 0
+0.165519 +0.023043 0
+0.001952 +0.000272 0
+0.015623 +0.002175 0
+0.002431 +0.000338 0
+0.012895 +0.001795 0
+0.017575 +0.002447 0
+0.061587 +0.008574 0
+0.054401 +0.007574 0
+0.137333 +0.019119 0
+0.034061 +0.004742 0
+0.062624 +0.008718 0
+0.108896 +0.015160 0
+0.224667 +0.031277 0
+0.166200 +0.023138 0
+0.292859 +0.040771 0
+0.090080 +0.012541 0
+0.104367 +0.014530 0
+0.204669 +0.028493 0
+0.307546 +0.042816 0
+0.199533 +0.027778 0
+0.227577 +0.031682 0
+0.095126 +0.013243 0
+0.110161 +0.015336 0
-0.777003 -0.108172 0
-0.623982 -0.086869 0
-0.019462 -0.002709 0
-0.405665 -0.056475 0
+0.046268 +0.006441 0
+0.348893 +0.048572 0
+0.149978 +0.020879 0
+0.618170 +0.086060 0
+0.484218 +0.067411 0
-0.462019 -0.064321 0
-0.864992 -0.120421 0
-0.461440 -0.064240 0
-0.825574 -0.114934 0
-0.911131 -0.126845 0
-1.029682 -0.143349 0
-0.299955 -0.041759 0
-0.244353 -0.034018 0
-0.595242 -0.082868 0
+0.092101 +0.012822 0
-0.017047 -0.002373 0
-0.330835 -0.046058 0
-0.620142 -0.086334 0
-0.416210 -0.057943 0
-0.235554 -0.032793 0
-0.294737 -0.041032 0
-0.553973 -0.077122 0
+0.278440 +0.038763 0
+0.185650 +0.025846 0
+0.001639 +0.000228 0
+0.233902 +0.032563 0
+0.178873 +0.024902 0
-0.056807 -0.007908 0
-0.144154 -0.020069 0
-0.211091 -0.029387 0
+0.426873 +0.059428 0
+0.363201 +0.050564 0
+0.103152 +0.014360 0
+0.638784 +0.088929 0
+0.452124 +0.062943 0
+0.499482 +0.069536 0
+0.230724 +0.032121 0
+0.251515 +0.035015 0
+0.449866 +0.062629 0
+0.158039 +0.022002 0
+0.778273 +0.108349 0
+0.691714 +0.096298 0
+0.443356 +0.061723 0
+0.680255 +0.094703 0
+0.175744 +0.024466 0
-0.222169 -0.030930 0
-0.441064 -0.061404 0
-0.237620 -0.033081 0
-0.468468 -0.065219 0
-0.648240 -0.090246 0
-0.830504 -0.115620 0
-0.684366 -0.095275 0
-0.879555 -0.122449 0
-0.983232 -0.136882 0
-1.101449 -0.153340 0
-0.836726 -0.116486 0
-0.937398 -0.130502 0
-0.749973 -0.104409 0
-0.774593 -0.107836 0
-1.003101 -0.139648 0
-1.031438 -0.143593 0
-0.768647 -0.107009 0
-0.731823 -0.101882 0
-0.466816 -0.064989 0
-0.450161 -0.062670 0
-0.144711 -0.020146 0
-0.130681 -0.018193 0
-0.413288 -0.057537 0
-0.356997 -0.049700 0
-0.107591 -0.014978 0
-0.076184 -0.010606 0
+0.062038 +0.008637 0
+0.039933 +0.005559 0
+0.069696 +0.009703 0
+0.019284 +0.002685 0
-0.225922 -0.031452 0
-0.444715 -0.061912 0
-0.192070 -0.026739 0
-0.378331 -0.052670 0
-0.403160 -0.056127 0
-0.519725 -0.072354 0
-0.551512 -0.076780 0
-0.706734 -0.098389 0
-0.618865 -0.086156 0
-0.697283 -0.097073 0
-0.344812 -0.048004 0
-0.399372 -0.055599 0
-0.098151 -0.013664 0
-0.123511 -0.017195 0
-0.439653 -0.061207 0
-0.462929 -0.064447 0
-0.140786 -0.019600 0
-0.147893 -0.020589 0
+0.177371 +0.024693 0
+0.145377 +0.020239 0
+0.337683 +0.047011 0
+0.274036 +0.038150 0
+0.114779 +0.015979 0
+0.087248 +0.012146 0
+0.207246 +0.028852 0
+0.139205 +0.019380 0
+0.312307 +0.043478 0
+0.211003 +0.029375 0
+0.124864 +0.017383 0
+0.106179 +0.014782 0
-0.139022 -0.019354 0
-0.275313 -0.038328 0
-0.067903 -0.009453 0
-0.139390 -0.019405 0
+0.025959 +0.003614 0
-0.000672 -0.000093 0
-0.210354 -0.029285 0
-0.280576 -0.039061 0
-0.032929 -0.004584 0
-0.066808 -0.009301 0
+0.290831 +0.040489 0
+0.269753 +0.037554 0
+0.540345 +0.075225 0
+0.501027 +0.069751 0
+0.241659 +0.033643 0
+0.210345 +0.029283 0
+0.452683 +0.063021 0
+0.398026 +0.055412 0
+0.652226 +0.090801 0
+0.580909 +0.080872 0
+0.580313 +0.080789 0
+0.477596 +0.066489 0
+0.498981 +0.069467 0
+0.409142 +0.056959 0
+0.365819 +0.050928 0
+0.247649 +0.034477 0
+0.362726 +0.050498 0
+0.245743 +0.034211 0
+0.104534 +0.014553 0
+0.124041 +0.017269 0
+0.029581 +0.004118 0
+0.039977 +0.005566 0
+0.277055 +0.038571 0
+0.590677 +0.082232 0
+0.301409 +0.041961 0
+0.302940 +0.042174 0
+0.586035 +0.081586 0
+0.569532 +0.079288 0
+0.788665 +0.109795 0
+0.815976 +0.113597 0
+0.757922 +0.105515 0
+0.712100 +0.099136 0
+0.751367 +0.104603 0
+0.672488 +0.093622 0
+0.662590 +0.092244 0
+0.397227 +0.055301 0
+0.573290 +0.079812 0
+0.472758 +0.065816 0
+0.305233 +0.042494 0
+0.206933 +0.028809 0
+0.137405 +0.019129 0
+0.069505 +0.009676 0
-0.715298 -0.099581 0
-1.016998 -0.141583 0
-0.693920 -0.096605 0
-0.916015 -0.127525 0
-1.227647 -0.170909 0
-0.764621 -0.106448 0
-0.996114 -0.138676 0
-1.294300 -0.180188 0
-0.708761 -0.098671 0
-0.385798 -0.053709 0
-0.600590 -0.083612 0
-0.320860 -0.044669 0
-0.938379 -0.130638 0
-0.893553 -0.124398 0
-0.801748 -0.111617 0
-0.932181 -0.129775 0
-0.668503 -0.093067 0
-0.854749 -0.118995 0
-0.356685 -0.049657 0
-0.359271 -0.050017 0
-0.499876 -0.069591 0
-0.824205 -0.114743 0
-0.447816 -0.062343 0
-1.174234 -0.163473 0
-1.132607 -0.157678 0
-1.066692 -0.148501 0
-1.074846 -0.149637 0
-0.736395 -0.102519 0
-1.011494 -0.140817 0
-0.377728 -0.052586 0
-0.375410 -0.052263 0
-0.536084 -0.074632 0
-0.977543 -0.136090 0
-0.532960 -0.074197 0
-1.270923 -0.176934 0
-1.286147 -0.179053 0
-1.246600 -0.173548 0
-1.078529 -0.150149 0
-0.758937 -0.105657 0
-1.101940 -0.153408 0
-0.308839 -0.042996 0
-0.356842 -0.049678 0
-0.962465 -0.133991 0
-0.495190 -0.068939 0
-1.243695 -0.173143 0
-1.239205 -0.172518 0
-0.610468 -0.084987 0
-0.997092 -0.138812 0
-0.234144 -0.032597 0
-0.163035 -0.022697 0
-0.288875 -0.040216 0
-0.196498 -0.027356 0
-0.353331 -0.049190 0
-0.560957 -0.078095 0
-0.658085 -0.091616 0
-0.468308 -0.065196 0
-0.543652 -0.075685 0
-0.713066 -0.099271 0
-0.732967 -0.102041 0
-0.842898 -0.117345 0
-0.870470 -0.121184 0
-0.997522 -0.138872 0
-0.956012 -0.133093 0
-0.862878 -0.120127 0
-0.830594 -0.115633 0
-0.891597 -0.124125 0
-0.816153 -0.113622 0
-0.995407 -0.138577 0
-0.892628 -0.124269 0
-0.829440 -0.115472 0
-0.677276 -0.094288 0
-0.780909 -0.108716 0
-0.676823 -0.094225 0
-0.525646 -0.073179 0
-0.379144 -0.052783 0
-0.532677 -0.074158 0
-0.351060 -0.048873 0
-0.179295 -0.024961 0
-0.169978 -0.023664 0
-0.228497 -0.031811 0
-0.417583 -0.058134 0
-0.255315 -0.035544 0
-0.475668 -0.066221 0
-0.723555 -0.100731 0
-0.873110 -0.121552 0
-0.649225 -0.090383 0
-0.771151 -0.107357 0
-0.965504 -0.134414 0
-1.004312 -0.139817 0
-1.068734 -0.148786 0
-1.124006 -0.156480 0
-1.227834 -0.170935 0
-1.183714 -0.164793 0
-1.123286 -0.156380 0
-1.076535 -0.149872 0
-1.094401 -0.152359 0
-0.972519 -0.135391 0
-1.174951 -0.163573 0
-1.046548 -0.145697 0
-0.934730 -0.130130 0
-0.753866 -0.104951 0
-0.889303 -0.123806 0
-0.714839 -0.099518 0
-0.561653 -0.078191 0
-0.367395 -0.051148 0
-0.575403 -0.080106 0
-0.379248 -0.052798 0
-0.182714 -0.025437 0
-0.185409 -0.025812 0
-0.272024 -0.037870 0
-0.519562 -0.072332 0
-0.272083 -0.037879 0
-0.539332 -0.075084 0
-0.782627 -0.108955 0
-0.992978 -0.138239 0
-0.772249 -0.107510 0
-0.951495 -0.132464 0
-1.138658 -0.158520 0
-1.215730 -0.169250 0
-1.162534 -0.161844 0
-1.265429 -0.176169 0
-1.315173 -0.183094 0
-1.297213 -0.180594 0
-1.296195 -0.180452 0
-1.262451 -0.175754 0
-1.219063 -0.169714 0
-1.094014 -0.152305 0
-1.212294 -0.168772 0
-1.097258 -0.152757 0
-0.905535 -0.126066 0
-0.739891 -0.103005 0
-0.944453 -0.131484 0
-0.766967 -0.106775 0
-0.558552 -0.077760 0
-0.370670 -0.051603 0
-0.504468 -0.070230 0
-0.336373 -0.046829 0
-0.136587 -0.019015 0
-0.166814 -0.023223 0
-0.245530 -0.034182 0
-0.522678 -0.072766 0
-0.458017 -0.063764 0
-0.923826 -0.128612 0
-0.743710 -0.103537 0
-0.986006 -0.137269 0
-1.131938 -0.157585 0
-1.262373 -0.175743 0
-1.201755 -0.167304 0
-1.195553 -0.166441 0
-1.276601 -0.177724 0
-1.276638 -0.177729 0
-1.146352 -0.159591 0
-1.045382 -0.145535 0
-0.934283 -0.130068 0
-0.543919 -0.075723 0
-0.812104 -0.113058 0
-0.665743 -0.092682 0
-0.411737 -0.057321 0
-0.274652 -0.038236 0
-0.187913 -0.026161 0
-0.093136 -0.012966 0
-0.193547 -0.026945 0
-0.184126 -0.025633 0
-0.058962 -0.008208 0
-0.343771 -0.047859 0
-0.385147 -0.053619 0
-0.165864 -0.023091 0
-0.443701 -0.061771 0
-0.585012 -0.081443 0
-0.323685 -0.045062 0
-0.114421 -0.015929 0
-0.101134 -0.014080 0
-0.061140 -0.008512 0
-0.216106 -0.030086 0
-0.087083 -0.012123 0
-0.108544 -0.015111 0
-0.121460 -0.016909 0
-0.022222 -0.003094 0
-0.052587 -0.007321 0
-0.017094 -0.002380 0
-0.004957 -0.000690 0
-0.195459 -0.027211 0
-0.274811 -0.038258 0
-0.159230 -0.022168 0
-0.410482 -0.057146 0
-0.284701 -0.039635 0
-0.317683 -0.044227 0
-0.288369 -0.040146 0
-0.107770 -0.015003 0
-0.201218 -0.028013 0
-0.062625 -0.008718 0
-0.036662 -0.005104 0
-0.243066 -0.033839 0
-0.400113 -0.055702 0
-0.223314 -0.031089 0
-0.565761 -0.078763 0
-0.484937 -0.067511 0
-0.493425 -0.068693 0
-0.496281 -0.069091 0
-0.234281 -0.032616 0
-0.384039 -0.053465 0
-0.133554 -0.018593 0
-0.094780 -0.013195 0
-0.473730 -0.065951 0
-0.254746 -0.035465 0
-0.682914 -0.095073 0
-0.624903 -0.086997 0
-0.463470 -0.064523 0
-0.632285 -0.088025 0
-0.222070 -0.030916 0
-0.032051 -0.004462 0
-0.031594 -0.004398 0
-0.059619 -0.008300 0
-0.088885 -0.012374 0
-0.160264 -0.022311 0
-0.148705 -0.020702 0
-0.084905 -0.011820 0
-0.051573 -0.007180 0
-0.109130 -0.015193 0
-0.054033 -0.007522 0
-0.212422 -0.029573 0
-0.162851 -0.022672 0
-0.205841 -0.028657 0
-0.134774 -0.018763 0
-0.100638 -0.014010 0
-0.041740 -0.005811 0
-0.070241 -0.009779 0
-0.023799 -0.003313 0
-0.154599 -0.021523 0
-0.085263 -0.011870 0
-0.088503 -0.012321 0
-0.038837 -0.005407 0
-0.036020 -0.005015 0
-0.009149 -0.001274 0
-0.011773 -0.001639 0
-0.001724 -0.000240 0
-0.034811 -0.004846 0
-0.010062 -0.001401 0
-0.005754 -0.000801 0
-0.001334 -0.000186 0
-0.082546 -0.011492 0
-0.137958 -0.019206 0
-0.100852 -0.014040 0
-0.178458 -0.024844 0
-0.278159 -0.038724 0
-0.310938 -0.043288 0
-0.224852 -0.031303 0
-0.235751 -0.032820 0
-0.306281 -0.042639 0
-0.267913 -0.037298 0
-0.388715 -0.054116 0
-0.365338 -0.050861 0
-0.408792 -0.056911 0
-0.335032 -0.046642 0
-0.309690 -0.043114 0
-0.234256 -0.032612 0
-0.246777 -0.034355 0
-0.160212 -0.022304 0
-0.343098 -0.047765 0
-0.243863 -0.033950 0
-0.227088 -0.031614 0
-0.135695 -0.018891 0
-0.153242 -0.021334 0
-0.081997 -0.011415 0
-0.068158 -0.009489 0
-0.025958 -0.003614 0
-0.110014 -0.015316 0
-0.048868 -0.006803 0
-0.025851 -0.003599 0
-0.014009 -0.001950 0
-0.114697 -0.015968 0
-0.210455 -0.029299 0
-0.124275 -0.017301 0
-0.234223 -0.032608 0
-0.351214 -0.048895 0
-0.423598 -0.058972 0
-0.320226 -0.044581 0
-0.373595 -0.052011 0
-0.458964 -0.063895 0
-0.453304 -0.063107 0
-0.516488 -0.071904 0
-0.531106 -0.073939 0
-0.589221 -0.082029 0
-0.535077 -0.074492 0
-0.502111 -0.069902 0
-0.435065 -0.060568 0
-0.444055 -0.061820 0
-0.334710 -0.046597 0
-0.553669 -0.077080 0
-0.437379 -0.060890 0
-0.416529 -0.057988 0
-0.274361 -0.038196 0
-0.311274 -0.043335 0
-0.198414 -0.027623 0
-0.159757 -0.022241 0
-0.077903 -0.010845 0
-0.225665 -0.031416 0
-0.112782 -0.015701 0
-0.060697 -0.008450 0
-0.040819 -0.005683 0
-0.129661 -0.018051 0
-0.249950 -0.034797 0
-0.257439 -0.035840 0
-0.483074 -0.067252 0
-0.370867 -0.051631 0
-0.460564 -0.064118 0
-0.559621 -0.077909 0
-0.597332 -0.083159 0
-0.647845 -0.090191 0
-0.727853 -0.101329 0
-0.666891 -0.092842 0
-0.635088 -0.088415 0
-0.672066 -0.093563 0
-0.561245 -0.078135 0
-0.705207 -0.098177 0
-0.570350 -0.079402 0
-0.562899 -0.078365 0
-0.385262 -0.053635 0
-0.346165 -0.048192 0
-0.166126 -0.023128 0
-0.296516 -0.041280 0
-0.088007 -0.012252 0
