# vtk DataFile Version 2.0
MyTitle
ASCII
DATASET UNSTRUCTURED_GRID
POINTS 601 double
2.000000 0.000000 0.000000
2.000000 1.000000 0.000000
3.000000 1.000000 0.000000
2.000000 2.000000 0.000000
1.000000 2.000000 0.000000
1.000000 3.000000 0.000000
0.000000 3.000000 0.000000
0.000000 2.000000 0.000000
1.000000 1.000000 0.000000
1.500000 1.500000 0.000000
2.500000 1.500000 0.000000
2.000000 0.166667 0.000000
2.000000 0.333333 0.000000
2.000000 0.500000 0.000000
2.000000 0.666667 0.000000
2.000000 0.833333 0.000000
2.000000 0.083333 0.000000
2.000000 0.250000 0.000000
2.000000 0.416667 0.000000
2.000000 0.583333 0.000000
2.000000 0.750000 0.000000
2.000000 0.916667 0.000000
2.166667 1.000000 0.000000
2.333333 1.000000 0.000000
2.500000 1.000000 0.000000
2.666667 1.000000 0.000000
2.833333 1.000000 0.000000
2.083333 1.000000 0.000000
2.250000 1.000000 0.000000
2.416667 1.000000 0.000000
2.583333 1.000000 0.000000
2.750000 1.000000 0.000000
2.916667 1.000000 0.000000
2.916667 1.083333 0.000000
2.833333 1.166667 0.000000
2.750000 1.250000 0.000000
2.666667 1.333333 0.000000
2.583333 1.416667 0.000000
2.958333 1.041667 0.000000
2.875000 1.125000 0.000000
2.791667 1.208333 0.000000
2.708333 1.291667 0.000000
2.625000 1.375000 0.000000
2.541667 1.458333 0.000000
1.833333 2.000000 0.000000
1.666667 2.000000 0.000000
1.500000 2.000000 0.000000
1.333333 2.000000 0.000000
1.166667 2.000000 0.000000
1.916667 2.000000 0.000000
1.750000 2.000000 0.000000
1.583333 2.000000 0.000000
1.416667 2.000000 0.000000
1.250000 2.000000 0.000000
1.083333 2.000000 0.000000
1.000000 2.166667 0.000000
1.000000 2.333333 0.000000
1.000000 2.500000 0.000000
1.000000 2.666667 0.000000
1.000000 2.833333 0.000000
1.000000 2.083333 0.000000
1.000000 2.250000 0.000000
1.000000 2.416667 0.000000
1.000000 2.583333 0.000000
1.000000 2.750000 0.000000
1.000000 2.916667 0.000000
0.833333 3.000000 0.000000
0.666667 3.000000 0.000000
0.500000 3.000000 0.000000
0.333333 3.000000 0.000000
0.166667 3.000000 0.000000
0.916667 3.000000 0.000000
0.750000 3.000000 0.000000
0.583333 3.000000 0.000000
0.416667 3.000000 0.000000
0.250000 3.000000 0.000000
0.083333 3.000000 0.000000
0.000000 2.833333 0.000000
0.000000 2.666667 0.000000
0.000000 2.500000 0.000000
0.000000 2.333333 0.000000
0.000000 2.166667 0.000000
0.000000 2.916667 0.000000
0.000000 2.750000 0.000000
0.000000 2.583333 0.000000
0.000000 2.416667 0.000000
0.000000 2.250000 0.000000
0.000000 2.083333 0.000000
0.166667 1.833333 0.000000
0.333333 1.666667 0.000000
0.500000 1.500000 0.000000
0.666667 1.333333 0.000000
0.833333 1.166667 0.000000
0.083333 1.916667 0.000000
0.250000 1.750000 0.000000
0.416667 1.583333 0.000000
0.583333 1.416667 0.000000
0.750000 1.250000 0.000000
0.916667 1.083333 0.000000
1.166667 0.833333 0.000000
1.333333 0.666667 0.000000
1.500000 0.500000 0.000000
1.666667 0.333333 0.000000
1.833333 0.166667 0.000000
1.083333 0.916667 0.000000
1.250000 0.750000 0.000000
1.416667 0.583333 0.000000
1.583333 0.416667 0.000000
1.750000 0.250000 0.000000
1.916667 0.083333 0.000000
1.916667 1.083333 0.000000
1.833333 1.166667 0.000000
1.750000 1.250000 0.000000
1.666667 1.333333 0.000000
1.583333 1.416667 0.000000
1.958333 1.041667 0.000000
1.875000 1.125000 0.000000
1.791667 1.208333 0.000000
1.708333 1.291667 0.000000
1.625000 1.375000 0.000000
1.541667 1.458333 0.000000
0.833333 2.000000 0.000000
0.666667 2.000000 0.000000
0.500000 2.000000 0.000000
0.333333 2.000000 0.000000
0.166667 2.000000 0.000000
0.916667 2.000000 0.000000
0.750000 2.000000 0.000000
0.583333 2.000000 0.000000
0.416667 2.000000 0.000000
0.250000 2.000000 0.000000
0.083333 2.000000 0.000000
1.416667 1.583333 0.000000
1.333333 1.666667 0.000000
1.250000 1.750000 0.000000
1.166667 1.833333 0.000000
1.083333 1.916667 0.000000
1.458333 1.541667 0.000000
1.375000 1.625000 0.000000
1.291667 1.708333 0.000000
1.208333 1.791667 0.000000
1.125000 1.875000 0.000000
1.041667 1.958333 0.000000
1.416667 1.416667 0.000000
1.333333 1.333333 0.000000
1.250000 1.250000 0.000000
1.166667 1.166667 0.000000
1.083333 1.083333 0.000000
1.458333 1.458333 0.000000
1.375000 1.375000 0.000000
1.291667 1.291667 0.000000
1.208333 1.208333 0.000000
1.125000 1.125000 0.000000
1.041667 1.041667 0.000000
2.416667 1.583333 0.000000
2.333333 1.666667 0.000000
2.250000 1.750000 0.000000
2.166667 1.833333 0.000000
2.083333 1.916667 0.000000
2.458333 1.541667 0.000000
2.375000 1.625000 0.000000
2.291667 1.708333 0.000000
2.208333 1.791667 0.000000
2.125000 1.875000 0.000000
2.041667 1.958333 0.000000
2.333333 1.500000 0.000000
2.166667 1.500000 0.000000
2.000000 1.500000 0.000000
1.833333 1.500000 0.000000
1.666667 1.500000 0.000000
2.416667 1.500000 0.000000
2.250000 1.500000 0.000000
2.083333 1.500000 0.000000
1.916667 1.500000 0.000000
1.750000 1.500000 0.000000
1.583333 1.500000 0.000000
2.166667 1.166667 0.000000
2.000000 1.333333 0.000000
2.500000 1.166667 0.000000
2.333333 1.333333 0.000000
2.250000 1.083333 0.000000
2.000000 1.166667 0.000000
2.083333 1.083333 0.000000
2.083333 1.250000 0.000000
1.833333 1.333333 0.000000
1.916667 1.250000 0.000000
1.916667 1.416667 0.000000
1.750000 1.416667 0.000000
2.583333 1.083333 0.000000
2.333333 1.166667 0.000000
2.416667 1.083333 0.000000
2.416667 1.250000 0.000000
2.166667 1.333333 0.000000
2.250000 1.250000 0.000000
2.250000 1.416667 0.000000
2.083333 1.416667 0.000000
2.666667 1.166667 0.000000
2.750000 1.083333 0.000000
2.500000 1.333333 0.000000
2.583333 1.250000 0.000000
2.416667 1.416667 0.000000
2.125000 1.041667 0.000000
2.000000 1.083333 0.000000
2.291667 1.041667 0.000000
2.166667 1.083333 0.000000
2.208333 1.125000 0.000000
2.083333 1.166667 0.000000
2.041667 1.125000 0.000000
1.916667 1.166667 0.000000
1.958333 1.208333 0.000000
1.833333 1.250000 0.000000
2.125000 1.208333 0.000000
2.000000 1.250000 0.000000
2.041667 1.291667 0.000000
1.916667 1.333333 0.000000
1.875000 1.291667 0.000000
1.750000 1.333333 0.000000
1.791667 1.375000 0.000000
1.666667 1.416667 0.000000
1.958333 1.375000 0.000000
1.833333 1.416667 0.000000
1.875000 1.458333 0.000000
1.708333 1.458333 0.000000
2.458333 1.041667 0.000000
2.333333 1.083333 0.000000
2.625000 1.041667 0.000000
2.500000 1.083333 0.000000
2.541667 1.125000 0.000000
2.416667 1.166667 0.000000
2.375000 1.125000 0.000000
2.250000 1.166667 0.000000
2.291667 1.208333 0.000000
2.166667 1.250000 0.000000
2.458333 1.208333 0.000000
2.333333 1.250000 0.000000
2.375000 1.291667 0.000000
2.250000 1.333333 0.000000
2.208333 1.291667 0.000000
2.083333 1.333333 0.000000
2.125000 1.375000 0.000000
2.000000 1.416667 0.000000
2.291667 1.375000 0.000000
2.166667 1.416667 0.000000
2.208333 1.458333 0.000000
2.041667 1.458333 0.000000
2.791667 1.041667 0.000000
2.666667 1.083333 0.000000
2.833333 1.083333 0.000000
2.750000 1.166667 0.000000
2.708333 1.125000 0.000000
2.583333 1.166667 0.000000
2.625000 1.208333 0.000000
2.500000 1.250000 0.000000
2.666667 1.250000 0.000000
2.583333 1.333333 0.000000
2.541667 1.291667 0.000000
2.416667 1.333333 0.000000
2.458333 1.375000 0.000000
2.333333 1.416667 0.000000
2.500000 1.416667 0.000000
2.375000 1.458333 0.000000
2.000000 1.666667 0.000000
1.833333 1.833333 0.000000
1.666667 1.666667 0.000000
1.500000 1.833333 0.000000
2.166667 1.666667 0.000000
2.083333 1.583333 0.000000
2.250000 1.583333 0.000000
2.000000 1.833333 0.000000
1.916667 1.750000 0.000000
2.083333 1.750000 0.000000
1.750000 1.916667 0.000000
1.916667 1.916667 0.000000
1.833333 1.666667 0.000000
1.750000 1.583333 0.000000
1.916667 1.583333 0.000000
1.666667 1.833333 0.000000
1.583333 1.750000 0.000000
1.750000 1.750000 0.000000
1.416667 1.916667 0.000000
1.583333 1.916667 0.000000
1.500000 1.666667 0.000000
1.583333 1.583333 0.000000
1.333333 1.833333 0.000000
1.416667 1.750000 0.000000
1.250000 1.916667 0.000000
2.333333 1.583333 0.000000
2.291667 1.541667 0.000000
2.250000 1.666667 0.000000
2.208333 1.625000 0.000000
2.083333 1.666667 0.000000
2.041667 1.625000 0.000000
2.166667 1.583333 0.000000
2.125000 1.541667 0.000000
2.166667 1.750000 0.000000
2.125000 1.708333 0.000000
2.083333 1.833333 0.000000
2.041667 1.791667 0.000000
1.916667 1.833333 0.000000
1.875000 1.791667 0.000000
2.000000 1.750000 0.000000
1.958333 1.708333 0.000000
2.000000 1.916667 0.000000
1.958333 1.875000 0.000000
1.875000 1.958333 0.000000
1.708333 1.958333 0.000000
1.833333 1.916667 0.000000
1.791667 1.875000 0.000000
2.000000 1.583333 0.000000
1.958333 1.541667 0.000000
1.916667 1.666667 0.000000
1.875000 1.625000 0.000000
1.750000 1.666667 0.000000
1.708333 1.625000 0.000000
1.833333 1.583333 0.000000
1.791667 1.541667 0.000000
1.833333 1.750000 0.000000
1.791667 1.708333 0.000000
1.750000 1.833333 0.000000
1.708333 1.791667 0.000000
1.583333 1.833333 0.000000
1.541667 1.791667 0.000000
1.666667 1.750000 0.000000
1.625000 1.708333 0.000000
1.666667 1.916667 0.000000
1.625000 1.875000 0.000000
1.541667 1.958333 0.000000
1.375000 1.958333 0.000000
1.500000 1.916667 0.000000
1.458333 1.875000 0.000000
1.666667 1.583333 0.000000
1.625000 1.541667 0.000000
1.583333 1.666667 0.000000
1.541667 1.625000 0.000000
1.416667 1.666667 0.000000
1.500000 1.583333 0.000000
1.500000 1.750000 0.000000
1.458333 1.708333 0.000000
1.416667 1.833333 0.000000
1.375000 1.791667 0.000000
1.250000 1.833333 0.000000
1.333333 1.750000 0.000000
1.333333 1.916667 0.000000
1.291667 1.875000 0.000000
1.208333 1.958333 0.000000
1.166667 1.916667 0.000000
0.666667 2.333333 0.000000
0.333333 2.333333 0.000000
0.666667 2.666667 0.000000
0.333333 2.666667 0.000000
0.833333 2.333333 0.000000
0.666667 2.166667 0.000000
0.833333 2.166667 0.000000
0.500000 2.333333 0.000000
0.333333 2.166667 0.000000
0.500000 2.166667 0.000000
0.166667 2.333333 0.000000
0.166667 2.166667 0.000000
0.833333 2.666667 0.000000
0.666667 2.500000 0.000000
0.833333 2.500000 0.000000
0.500000 2.666667 0.000000
0.333333 2.500000 0.000000
0.500000 2.500000 0.000000
0.166667 2.666667 0.000000
0.166667 2.500000 0.000000
0.666667 2.833333 0.000000
[...]
POINT_DATA 601
VECTORS sol double
+0.000000 +0.000000 0
+0.000000 +0.000000 0
+0.000000 +0.000000 0
+0.000000 +0.000000 0
+0.000000 +0.000000 0
+0.000000 +0.000000 0
+0.000000 +0.000000 0
+0.000000 +0.000000 0
+0.000000 +0.000000 0
+0.223908 +0.006544 0
+0.000000 +0.000000 0
+0.000000 +0.000000 0
+0.000000 +0.000000 0
+0.000000 +0.000000 0
+0.000000 +0.000000 0
+0.000000 +0.000000 0
+0.000000 +0.000000 0
+0.000000 +0.000000 0
+0.000000 +0.000000 0
+0.000000 +0.000000 0
+0.000000 +0.000000 0
+0.000000 +0.000000 0
+0.000000 +0.000000 0
+0.000000 +0.000000 0
+0.000000 +0.000000 0
+0.000000 +0.000000 0
+0.000000 +0.000000 0
+0.000000 +0.000000 0
+0.000000 +0.000000 0
+0.000000 +0.000000 0
+0.000000 +0.000000 0
+0.000000 +0.000000 0
+0.000000 +0.000000 0
+0.000000 +0.000000 0
+0.000000 +0.000000 0
+0.000000 +0.000000 0
+0.000000 +0.000000 0
+0.000000 +0.000000 0
+0.000000 +0.000000 0
+0.000000 +0.000000 0
+0.000000 +0.000000 0
+0.000000 +0.000000 0
+0.000000 +0.000000 0
+0.000000 +0.000000 0
+0.000000 +0.000000 0
+0.000000 +0.000000 0
+0.000000 +0.000000 0
+0.000000 +0.000000 0
+0.000000 +0.000000 0
+0.000000 +0.000000 0
+0.000000 +0.000000 0
+0.000000 +0.000000 0
+0.000000 +0.000000 0
+0.000000 +0.000000 0
+0.000000 +0.000000 0
+0.000000 +0.000000 0
+0.000000 +0.000000 0
+0.000000 +0.000000 0
+0.000000 +0.000000 0
+0.000000 +0.000000 0
+0.000000 +0.000000 0
+0.000000 +0.000000 0
+0.000000 +0.000000 0
+0.000000 +0.000000 0
+0.000000 +0.000000 0
+0.000000 +0.000000 0
+0.000000 +0.000000 0
+0.000000 +0.000000 0
+0.000000 +0.000000 0
+0.000000 +0.000000 0
+0.000000 +0.000000 0
+0.000000 +0.000000 0
+0.000000 +0.000000 0
+0.000000 +0.000000 0
+0.000000 +0.000000 0
+0.000000 +0.000000 0
+0.000000 +0.000000 0
+0.000000 +0.000000 0
+0.000000 +0.000000 0
+0.000000 +0.000000 0
+0.000000 +0.000000 0
+0.000000 +0.000000 0
+0.000000 +0.000000 0
+0.000000 +0.000000 0
+0.000000 +0.000000 0
+0.000000 +0.000000 0
+0.000000 +0.000000 0
+0.000000 +0.000000 0
+0.000000 +0.000000 0
+0.000000 +0.000000 0
+0.000000 +0.000000 0
+0.000000 +0.000000 0
+0.000000 +0.000000 0
+0.000000 +0.000000 0
+0.000000 +0.000000 0
+0.000000 +0.000000 0
+0.000000 +0.000000 0
+0.000000 +0.000000 0
+0.000000 +0.000000 0
+0.000000 +0.000000 0
+0.000000 +0.000000 0
+0.000000 +0.000000 0
+0.000000 +0.000000 0
+0.000000 +0.000000 0
+0.000000 +0.000000 0
+0.000000 +0.000000 0
+0.000000 +0.000000 0
+0.000000 +0.000000 0
+0.000000 +0.000000 0
+0.000000 +0.000000 0
+0.213178 +0.006231 0
+0.321904 +0.009408 0
+0.374245 +0.010938 0
+0.371015 +0.010844 0
+0.317548 +0.009281 0
+0.115548 +0.003377 0
+0.278369 +0.008136 0
+0.355166 +0.010381 0
+0.379455 +0.011090 0
+0.350153 +0.010234 0
+0.274955 +0.008036 0
-0.833867 -0.024372 0
-1.248221 -0.036482 0
-1.285232 -0.037564 0
-0.967547 -0.028279 0
-0.438484 -0.012816 0
-0.467027 -0.013650 0
-1.090748 -0.031880 0
-1.315320 -0.038443 0
-1.164695 -0.034041 0
-0.716462 -0.020940 0
-0.186123 -0.005440 0
+0.105691 +0.003089 0
-0.017430 -0.000509 0
-0.123434 -0.003608 0
-0.189776 -0.005547 0
-0.185896 -0.005433 0
+0.166740 +0.004873 0
+0.043370 +0.001268 0
-0.074152 -0.002167 0
-0.163155 -0.004769 0
-0.203053 -0.005935 0
-0.109276 -0.003194 0
+0.183393 +0.005360 0
+0.134041 +0.003918 0
+0.086851 +0.002538 0
+0.048699 +0.001423 0
+0.020937 +0.000612 0
+0.205467 +0.006005 0
+0.159082 +0.004650 0
+0.109713 +0.003207 0
+0.066583 +0.001946 0
+0.033842 +0.000989 0
+0.010199 +0.000298 0
+0.000000 +0.000000 0
+0.000000 +0.000000 0
+0.000000 +0.000000 0
+0.000000 +0.000000 0
+0.000000 +0.000000 0
+0.000000 +0.000000 0
+0.000000 +0.000000 0
+0.000000 +0.000000 0
+0.000000 +0.000000 0
+0.000000 +0.000000 0
+0.000000 +0.000000 0
+0.087886 +0.002569 0
+0.197803 +0.005781 0
+0.296617 +0.008669 0
+0.348888 +0.010197 0
+0.327378 +0.009568 0
+0.039395 +0.001151 0
+0.141972 +0.004149 0
+0.250894 +0.007333 0
+0.330671 +0.009665 0
+0.348463 +0.010185 0
+0.285453 +0.008343 0
+0.144687 +0.004229 0
+0.310392 +0.009072 0
+0.037708 +0.001102 0
+0.118733 +0.003470 0
+0.059403 +0.001736 0
+0.227765 +0.006657 0
+0.107456 +0.003141 0
+0.236358 +0.006908 0
+0.375051 +0.010962 0
+0.325621 +0.009517 0
+0.350314 +0.010239 0
+0.374452 +0.010944 0
+0.012663 +0.000370 0
+0.082888 +0.002423 0
+0.031981 +0.000935 0
+0.074479 +0.002177 0
+0.214479 +0.006269 0
+0.147645 +0.004315 0
+0.162895 +0.004761 0
+0.268240 +0.007840 0
+0.010419 +0.000305 0
+0.002730 +0.000080 0
+0.043325 +0.001266 0
+0.024108 +0.000705 0
+0.065835 +0.001924 0
+0.044765 +0.001308 0
+0.143346 +0.004190 0
+0.027022 +0.000790 0
+0.078710 +0.002300 0
+0.099746 +0.002915 0
+0.183361 +0.005359 0
+0.167846 +0.004906 0
+0.279986 +0.008183 0
+0.282352 +0.008252 0
+0.358302 +0.010472 0
+0.190849 +0.005578 0
+0.282565 +0.008259 0
+0.276845 +0.008091 0
+0.349312 +0.010209 0
+0.356763 +0.010427 0
+0.383372 +0.011205 0
+0.381058 +0.011137 0
+0.356617 +0.010423 0
+0.335394 +0.009803 0
+0.371644 +0.010862 0
+0.354954 +0.010374 0
+0.356316 +0.010414 0
+0.013343 +0.000390 0
+0.044738 +0.001308 0
+0.004911 +0.000144 0
+0.021095 +0.000617 0
+0.023614 +0.000690 0
+0.058164 +0.001700 0
+0.055123 +0.001611 0
+0.111354 +0.003255 0
+0.114039 +0.003333 0
+0.190487 +0.005567 0
+0.054770 +0.001601 0
+0.108589 +0.003174 0
+0.095993 +0.002806 0
+0.165051 +0.004824 0
+0.181623 +0.005308 0
+0.264098 +0.007719 0
+0.243819 +0.007126 0
+0.314436 +0.009190 0
+0.141304 +0.004130 0
+0.216323 +0.006323 0
+0.182014 +0.005320 0
+0.286186 +0.008364 0
+0.000911 +0.000027 0
+0.006625 +0.000194 0
+0.000731 +0.000021 0
+0.003395 +0.000099 0
+0.005875 +0.000172 0
+0.021765 +0.000636 0
+0.016488 +0.000482 0
+0.046036 +0.001346 0
+0.008864 +0.000259 0
+0.017288 +0.000505 0
+0.033075 +0.000967 0
+0.077500 +0.002265 0
+0.054289 +0.001587 0
+0.111613 +0.003262 0
+0.027975 +0.000818 0
+0.077090 +0.002253 0
+0.210646 +0.006157 0
+0.131456 +0.003842 0
+0.235329 +0.006878 0
+0.063024 +0.001842 0
+0.113258 +0.003310 0
+0.215402 +0.006296 0
+0.105036 +0.003070 0
+0.092159 +0.002694 0
+0.181906 +0.005317 0
+0.109676 +0.003206 0
+0.066320 +0.001938 0
+0.055331 +0.001617 0
+0.257486 +0.007526 0
+0.307664 +0.008992 0
+0.293098 +0.008566 0
+0.120075 +0.003509 0
+0.147048 +0.004298 0
+0.195776 +0.005722 0
+0.006611 +0.000193 0
+0.047988 +0.001403 0
+0.140883 +0.004118 0
+0.244073 +0.007134 0
-0.037197 -0.001087 0
+0.038944 +0.001138 0
-0.061991 -0.001812 0
+0.049449 +0.001445 0
+0.097261 +0.002843 0
+0.055953 +0.001635 0
+0.110427 +0.003227 0
+0.166449 +0.004865 0
+0.216062 +0.006315 0
+0.161962 +0.004734 0
+0.209169 +0.006113 0
+0.057106 +0.001669 0
+0.113082 +0.003305 0
+0.051580 +0.001508 0
+0.102931 +0.003008 0
+0.118510 +0.003464 0
+0.159313 +0.004656 0
+0.152473 +0.004456 0
+0.199369 +0.005827 0
+0.037150 +0.001086 0
+0.076790 +0.002244 0
+0.031399 +0.000918 0
+0.031793 +0.000929 0
+0.065342 +0.001910 0
+0.099977 +0.002922 0
+0.260582 +0.007616 0
+0.299087 +0.008741 0
+0.241994 +0.007073 0
+0.279184 +0.008160 0
+0.255625 +0.007471 0
+0.274661 +0.008028 0
+0.309700 +0.009052 0
+0.332973 +0.009732 0
+0.196768 +0.005751 0
+0.229381 +0.006704 0
+0.131823 +0.003853 0
+0.158729 +0.004639 0
+0.097125 +0.002839 0
+0.103139 +0.003014 0
+0.179178 +0.005237 0
+0.192052 +0.005613 0
+0.060162 +0.001758 0
+0.082425 +0.002409 0
+0.019780 +0.000578 0
-0.003778 -0.000110 0
+0.030130 +0.000881 0
+0.029704 +0.000868 0
+0.285901 +0.008356 0
+0.289405 +0.008459 0
+0.196875 +0.005754 0
+0.193724 +0.005662 0
+0.068794 +0.002011 0
+0.183283 +0.005357 0
+0.100117 +0.002926 0
+0.088240 +0.002579 0
+0.018276 +0.000534 0
-0.004180 -0.000122 0
-0.104673 -0.003059 0
-0.035647 -0.001042 0
-0.022917 -0.000670 0
-0.057053 -0.001667 0
-0.045488 -0.001329 0
-0.113449 -0.003316 0
-1.384785 -0.040474 0
-1.321188 -0.038615 0
-0.913712 -0.026705 0
-0.901877 -0.026359 0
-0.813697 -0.023782 0
-1.387104 -0.040541 0
-0.839794 -0.024545 0
-1.562561 -0.045669 0
-1.248496 -0.036490 0
-1.522610 -0.044502 0
-0.748114 -0.021865 0
-0.679287 -0.019854 0
-0.530035 -0.015492 0
-1.224045 -0.035776 0
-0.712730 -0.020831 0
-1.048245 -0.030637 0
-1.196165 -0.034961 0
-1.397371 -0.040841 0
-0.518167 -0.015145 0
-0.684448 -0.020005 0
-0.488071 -0.014265 0
-0.282705 -0.008263 0
-0.483732 -0.014138 0
-0.561074 -0.016399 0
-0.278359 -0.008136 0
-0.438081 -0.012804 0
-0.831380 -0.024299 0
-0.423503 -0.012378 0
-0.834217 -0.024382 0
-1.141998 -0.033378 0
-1.405599 -0.041082 0
-1.161024 -0.033934 0
-1.335609 -0.039036 0
-1.509743 -0.044126 0
-1.427203 -0.041713 0
-1.527789 -0.044653 0
-1.569060 -0.045859 0
-1.491784 -0.043601 0
-1.311238 -0.038324 0
-1.432071 -0.041856 0
-1.132367 -0.033096 0
-0.989823 -0.028930 0
-0.589655 -0.017234 0
-1.067887 -0.031211 0
-0.733244 -0.021431 0
-0.385103 -0.011256 0
-0.348656 -0.010190 0
-0.369804 -0.010808 0
-0.773866 -0.022618 0
-0.274793 -0.008031 0
-0.631048 -0.018444 0
-0.748250 -0.021869 0
-1.086309 -0.031750 0
-1.004393 -0.029356 0
-1.324643 -0.038716 0
-1.358173 -0.039696 0
-1.505474 -0.044001 0
-1.016262 -0.029703 0
-1.243910 -0.036356 0
-1.009495 -0.029505 0
-1.068156 -0.031219 0
-1.342241 -0.039230 0
-1.282706 -0.037490 0
-0.972305 -0.028418 0
-0.731254 -0.021373 0
-0.734673 -0.021473 0
-0.612774 -0.017910 0
-0.267982 -0.007832 0
-0.353670 -0.010337 0
-0.146508 -0.004282 0
-0.412962 -0.012070 0
-0.143679 -0.004199 0
-0.248136 -0.007252 0
-0.399358 -0.011672 0
-0.712570 -0.020826 0
-0.543386 -0.015882 0
-0.818550 -0.023924 0
-0.285380 -0.008341 0
-0.246156 -0.007194 0
-0.540904 -0.015809 0
-0.705189 -0.020611 0
-0.394390 -0.011527 0
-0.405569 -0.011854 0
-0.141697 -0.004141 0
-0.144022 -0.004209 0
-0.668711 -0.019545 0
-0.245705 -0.007181 0
-0.736023 -0.021512 0
-0.299784 -0.008762 0
-0.936796 -0.027380 0
-0.406979 -0.011895 0
-0.560133 -0.016371 0
-0.451878 -0.013207 0
-0.133522 -0.003902 0
-0.286416 -0.008371 0
-0.043643 -0.001276 0
+0.031308 +0.000915 0
-0.921767 -0.026941 0
-0.808151 -0.023620 0
-1.082749 -0.031646 0
-0.512640 -0.014983 0
-0.312978 -0.009147 0
-0.548316 -0.016026 0
-0.108047 -0.003158 0
-0.095965 -0.002805 0
-0.446875 -0.013061 0
-0.515959 -0.015080 0
-0.191454 -0.005596 0
-0.321841 -0.009407 0
-0.073645 -0.002152 0
-0.655891 -0.019170 0
-0.317620 -0.009283 0
-1.100295 -0.032159 0
-0.767331 -0.022427 0
-0.795215 -0.023242 0
-0.544132 -0.015904 0
-0.470714 -0.013758 0
-0.291922 -0.008532 0
-0.351159 -0.010263 0
-0.201364 -0.005885 0
-0.555418 -0.016233 0
-0.372243 -0.010880 0
-0.348738 -0.010193 0
-0.192918 -0.005638 0
-0.213054 -0.006227 0
-0.073876 -0.002159 0
-0.051262 -0.001498 0
+0.069932 +0.002044 0
-0.143292 -0.004188 0
-0.007596 -0.000222 0
+0.050071 +0.001463 0
+0.110594 +0.003232 0
-1.200136 -0.035077 0
-1.048019 -0.030631 0
-0.970221 -0.028357 0
-1.038720 -0.030359 0
-0.840139 -0.024555 0
-0.800780 -0.023405 0
-0.946704 -0.027670 0
-0.760451 -0.022226 0
-0.674348 -0.019709 0
-0.513116 -0.014997 0
-0.624875 -0.018263 0
-0.549404 -0.016058 0
-0.403854 -0.011804 0
-0.317800 -0.009288 0
-0.428301 -0.012518 0
-0.287523 -0.008404 0
-0.201543 -0.005891 0
-0.073890 -0.002160 0
-0.200598 -0.005863 0
-0.107627 -0.003146 0
-0.023809 -0.000696 0
+0.001442 +0.000042 0
-0.505840 -0.014784 0
-0.743008 -0.021716 0
-0.263514 -0.007702 0
-0.238353 -0.006966 0
-0.493986 -0.014438 0
-0.616729 -0.018025 0
-0.387670 -0.011331 0
-0.436138 -0.012747 0
-0.174479 -0.005100 0
-0.104263 -0.003047 0
-0.255715 -0.007474 0
-0.257277 -0.007520 0
-0.130301 -0.003808 0
-0.096366 -0.002817 0
-0.040631 -0.001188 0
-0.022415 -0.000655 0
+0.310671 +0.009080 0
+0.189681 +0.005544 0
+0.177124 +0.005177 0
+0.079137 +0.002313 0
+0.259297 +0.007579 0
+0.351698 +0.010279 0
+0.296918 +0.008678 0
+0.282084 +0.008245 0
+0.251920 +0.007363 0
+0.337265 +0.009857 0
+0.078024 +0.002280 0
+0.121377 +0.003548 0
+0.148475 +0.004340 0
+0.251665 +0.007355 0
+0.209095 +0.006111 0
+0.142952 +0.004178 0
+0.133002 +0.003887 0
+0.216308 +0.006322 0
+0.025072 +0.000733 0
+0.049793 +0.001455 0
+0.090890 +0.002656 0
+0.078340 +0.002290 0
+0.032453 +0.000949 0
+0.067588 +0.001975 0
+0.007838 +0.000229 0
+0.246413 +0.007202 0
+0.309681 +0.009051 0
+0.204913 +0.005989 0
+0.279955 +0.008182 0
+0.295154 +0.008627 0
+0.333788 +0.009756 0
+0.332600 +0.009721 0
+0.364448 +0.010652 0
+0.353485 +0.010331 0
+0.358623 +0.010482 0
+0.306109 +0.008947 0
+0.311277 +0.009098 0
+0.241507 +0.007059 0
+0.219875 +0.006426 0
+0.303230 +0.008863 0
+0.289735 +0.008468 0
+0.189336 +0.005534 0
+0.151463 +0.004427 0
+0.132592 +0.003875 0
+0.096041 +0.002807 0
+0.034017 +0.000994 0
+0.050087 +0.001464 0
+0.157232 +0.004595 0
+0.235717 +0.006889 0
+0.107165 +0.003132 0
+0.180195 +0.005267 0
+0.171965 +0.005026 0
+0.216283 +0.006321 0
+0.240972 +0.007043 0
+0.283413 +0.008283 0
+0.242598 +0.007090 0
+0.250408 +0.007319 0
+0.166330 +0.004861 0
+0.180343 +0.005271 0
+0.112029 +0.003274 0
+0.105507 +0.003084 0
+0.177673 +0.005193 0
+0.160748 +0.004698 0
+0.088344 +0.002582 0
+0.063458 +0.001855 0
+0.049024 +0.001433 0
+0.036632 +0.001071 0
+0.008729 +0.000255 0
+0.019752 +0.000577 0
+0.055285 +0.001616 0
+0.114751 +0.003354 0
+0.040293 +0.001178 0
+0.045532 +0.001331 0
+0.090301 +0.002639 0
+0.135227 +0.003952 0
+0.082488 +0.002411 0
+0.104940 +0.003067 0
+0.031983 +0.000935 0
+0.013864 +0.000405 0
+0.049742 +0.001454 0
+0.054356 +0.001589 0
+0.017914 +0.000524 0
+0.015263 +0.000446 0
+0.002774 +0.000081 0
+0.002146 +0.000063 0
