# vtk DataFile Version 2.0
MyTitle
ASCII
DATASET UNSTRUCTURED_GRID
POINTS 601 double
2.000000 0.000000 0.000000
2.000000 1.000000 0.000000
3.000000 1.000000 0.000000
2.000000 2.000000 0.000000
1.000000 2.000000 0.000000
1.000000 3.000000 0.000000
0.000000 3.000000 0.000000
0.000000 2.000000 0.000000
1.000000 1.000000 0.000000
1.500000 1.500000 0.000000
2.500000 1.500000 0.000000
2.000000 0.166667 0.000000
2.000000 0.333333 0.000000
2.000000 0.500000 0.000000
2.000000 0.666667 0.000000
2.000000 0.833333 0.000000
2.000000 0.083333 0.000000
2.000000 0.250000 0.000000
2.000000 0.416667 0.000000
2.000000 0.583333 0.000000
2.000000 0.750000 0.000000
2.000000 0.916667 0.000000
2.166667 1.000000 0.000000
2.333333 1.000000 0.000000
2.500000 1.000000 0.000000
2.666667 1.000000 0.000000
2.833333 1.000000 0.000000
2.083333 1.000000 0.000000
2.250000 1.000000 0.000000
2.416667 1.000000 0.000000
2.583333 1.000000 0.000000
2.750000 1.000000 0.000000
2.916667 1.000000 0.000000
2.916667 1.083333 0.000000
2.833333 1.166667 0.000000
2.750000 1.250000 0.000000
2.666667 1.333333 0.000000
2.583333 1.416667 0.000000
2.958333 1.041667 0.000000
2.875000 1.125000 0.000000
2.791667 1.208333 0.000000
2.708333 1.291667 0.000000
2.625000 1.375000 0.000000
2.541667 1.458333 0.000000
1.833333 2.000000 0.000000
1.666667 2.000000 0.000000
1.500000 2.000000 0.000000
1.333333 2.000000 0.000000
1.166667 2.000000 0.000000
1.916667 2.000000 0.000000
1.750000 2.000000 0.000000
1.583333 2.000000 0.000000
1.416667 2.000000 0.000000
1.250000 2.000000 0.000000
1.083333 2.000000 0.000000
1.000000 2.166667 0.000000
1.000000 2.333333 0.000000
1.000000 2.500000 0.000000
1.000000 2.666667 0.000000
1.000000 2.833333 0.000000
1.000000 2.083333 0.000000
1.000000 2.250000 0.000000
1.000000 2.416667 0.000000
1.000000 2.583333 0.000000
1.000000 2.750000 0.000000
1.000000 2.916667 0.000000
0.833333 3.000000 0.000000
0.666667 3.000000 0.000000
0.500000 3.000000 0.000000
0.333333 3.000000 0.000000
0.166667 3.000000 0.000000
0.916667 3.000000 0.000000
0.750000 3.000000 0.000000
0.583333 3.000000 0.000000
0.416667 3.000000 0.000000
0.250000 3.000000 0.000000
0.083333 3.000000 0.000000
0.000000 2.833333 0.000000
0.000000 2.666667 0.000000
0.000000 2.500000 0.000000
0.000000 2.333333 0.000000
0.000000 2.166667 0.000000
0.000000 2.916667 0.000000
0.000000 2.750000 0.000000
0.000000 2.583333 0.000000
0.000000 2.416667 0.000000
0.000000 2.250000 0.000000
0.000000 2.083333 0.000000
0.166667 1.833333 0.000000
0.333333 1.666667 0.000000
0.500000 1.500000 0.000000
0.666667 1.333333 0.000000
0.833333 1.166667 0.000000
0.083333 1.916667 0.000000
0.250000 1.750000 0.000000
0.416667 1.583333 0.000000
0.583333 1.416667 0.000000
0.750000 1.250000 0.000000
0.916667 1.083333 0.000000
1.166667 0.833333 0.000000
1.333333 0.666667 0.000000
1.500000 0.500000 0.000000
1.666667 0.333333 0.000000
1.833333 0.166667 0.000000
1.083333 0.916667 0.000000
1.250000 0.750000 0.000000
1.416667 0.583333 0.000000
1.583333 0.416667 0.000000
1.750000 0.250000 0.000000
1.916667 0.083333 0.000000
1.916667 1.083333 0.000000
1.833333 1.166667 0.000000
1.750000 1.250000 0.000000
1.666667 1.333333 0.000000
1.583333 1.416667 0.000000
1.958333 1.041667 0.000000
1.875000 1.125000 0.000000
1.791667 1.208333 0.000000
1.708333 1.291667 0.000000
1.625000 1.375000 0.000000
1.541667 1.458333 0.000000
0.833333 2.000000 0.000000
0.666667 2.000000 0.000000
0.500000 2.000000 0.000000
0.333333 2.000000 0.000000
0.166667 2.000000 0.000000
0.916667 2.000000 0.000000
0.750000 2.000000 0.000000
0.583333 2.000000 0.000000
0.416667 2.000000 0.000000
0.250000 2.000000 0.000000
0.083333 2.000000 0.000000
1.416667 1.583333 0.000000
1.333333 1.666667 0.000000
1.250000 1.750000 0.000000
1.166667 1.833333 0.000000
1.083333 1.916667 0.000000
1.458333 1.541667 0.000000
1.375000 1.625000 0.000000
1.291667 1.708333 0.000000
1.208333 1.791667 0.000000
1.125000 1.875000 0.000000
1.041667 1.958333 0.000000
1.416667 1.416667 0.000000
1.333333 1.333333 0.000000
1.250000 1.250000 0.000000
1.166667 1.166667 0.000000
1.083333 1.083333 0.000000
1.458333 1.458333 0.000000
1.375000 1.375000 0.000000
1.291667 1.291667 0.000000
1.208333 1.208333 0.000000
1.125000 1.125000 0.000000
1.041667 1.041667 0.000000
2.416667 1.583333 0.000000
2.333333 1.666667 0.000000
2.250000 1.750000 0.000000
2.166667 1.833333 0.000000
2.083333 1.916667 0.000000
2.458333 1.541667 0.000000
2.375000 1.625000 0.000000
2.291667 1.708333 0.000000
2.208333 1.791667 0.000000
2.125000 1.875000 0.000000
2.041667 1.958333 0.000000
2.333333 1.500000 0.000000
2.166667 1.500000 0.000000
2.000000 1.500000 0.000000
1.833333 1.500000 0.000000
1.666667 1.500000 0.000000
2.416667 1.500000 0.000000
2.250000 1.500000 0.000000
2.083333 1.500000 0.000000
1.916667 1.500000 0.000000
1.750000 1.500000 0.000000
1.583333 1.500000 0.000000
2.166667 1.166667 0.000000
2.000000 1.333333 0.000000
2.500000 1.166667 0.000000
2.333333 1.333333 0.000000
2.250000 1.083333 0.000000
2.000000 1.166667 0.000000
2.083333 1.083333 0.000000
2.083333 1.250000 0.000000
1.833333 1.333333 0.000000
1.916667 1.250000 0.000000
1.916667 1.416667 0.000000
1.750000 1.416667 0.000000
2.583333 1.083333 0.000000
2.333333 1.166667 0.000000
2.416667 1.083333 0.000000
2.416667 1.250000 0.000000
2.166667 1.333333 0.000000
2.250000 1.250000 0.000000
2.250000 1.416667 0.000000
2.083333 1.416667 0.000000
2.666667 1.166667 0.000000
2.750000 1.083333 0.000000
2.500000 1.333333 0.000000
2.583333 1.250000 0.000000
2.416667 1.416667 0.000000
2.125000 1.041667 0.000000
2.000000 1.083333 0.000000
2.291667 1.041667 0.000000
2.166667 1.083333 0.000000
2.208333 1.125000 0.000000
2.083333 1.166667 0.000000
2.041667 1.125000 0.000000
1.916667 1.166667 0.000000
1.958333 1.208333 0.000000
1.833333 1.250000 0.000000
2.125000 1.208333 0.000000
2.000000 1.250000 0.000000
2.041667 1.291667 0.000000
1.916667 1.333333 0.000000
1.875000 1.291667 0.000000
1.750000 1.333333 0.000000
1.791667 1.375000 0.000000
1.666667 1.416667 0.000000
1.958333 1.375000 0.000000
1.833333 1.416667 0.000000
1.875000 1.458333 0.000000
1.708333 1.458333 0.000000
2.458333 1.041667 0.000000
2.333333 1.083333 0.000000
2.625000 1.041667 0.000000
2.500000 1.083333 0.000000
2.541667 1.125000 0.000000
2.416667 1.166667 0.000000
2.375000 1.125000 0.000000
2.250000 1.166667 0.000000
2.291667 1.208333 0.000000
2.166667 1.250000 0.000000
2.458333 1.208333 0.000000
2.333333 1.250000 0.000000
2.375000 1.291667 0.000000
2.250000 1.333333 0.000000
2.208333 1.291667 0.000000
2.083333 1.333333 0.000000
2.125000 1.375000 0.000000
2.000000 1.416667 0.000000
2.291667 1.375000 0.000000
2.166667 1.416667 0.000000
2.208333 1.458333 0.000000
2.041667 1.458333 0.000000
2.791667 1.041667 0.000000
2.666667 1.083333 0.000000
2.833333 1.083333 0.000000
2.750000 1.166667 0.000000
2.708333 1.125000 0.000000
2.583333 1.166667 0.000000
2.625000 1.208333 0.000000
2.500000 1.250000 0.000000
2.666667 1.250000 0.000000
2.583333 1.333333 0.000000
2.541667 1.291667 0.000000
2.416667 1.333333 0.000000
2.458333 1.375000 0.000000
2.333333 1.416667 0.000000
2.500000 1.416667 0.000000
2.375000 1.458333 0.000000
2.000000 1.666667 0.000000
1.833333 1.833333 0.000000
1.666667 1.666667 0.000000
1.500000 1.833333 0.000000
2.166667 1.666667 0.000000
2.083333 1.583333 0.000000
2.250000 1.583333 0.000000
2.000000 1.833333 0.000000
1.916667 1.750000 0.000000
2.083333 1.750000 0.000000
1.750000 1.916667 0.000000
1.916667 1.916667 0.000000
1.833333 1.666667 0.000000
1.750000 1.583333 0.000000
1.916667 1.583333 0.000000
1.666667 1.833333 0.000000
1.583333 1.750000 0.000000
1.750000 1.750000 0.000000
1.416667 1.916667 0.000000
1.583333 1.916667 0.000000
1.500000 1.666667 0.000000
1.583333 1.583333 0.000000
1.333333 1.833333 0.000000
1.416667 1.750000 0.000000
1.250000 1.916667 0.000000
2.333333 1.583333 0.000000
2.291667 1.541667 0.000000
2.250000 1.666667 0.000000
2.208333 1.625000 0.000000
2.083333 1.666667 0.000000
2.041667 1.625000 0.000000
2.166667 1.583333 0.000000
2.125000 1.541667 0.000000
2.166667 1.750000 0.000000
2.125000 1.708333 0.000000
2.083333 1.833333 0.000000
2.041667 1.791667 0.000000
1.916667 1.833333 0.000000
1.875000 1.791667 0.000000
2.000000 1.750000 0.000000
1.958333 1.708333 0.000000
2.000000 1.916667 0.000000
1.958333 1.875000 0.000000
1.875000 1.958333 0.000000
1.708333 1.958333 0.000000
1.833333 1.916667 0.000000
1.791667 1.875000 0.000000
2.000000 1.583333 0.000000
1.958333 1.541667 0.000000
1.916667 1.666667 0.000000
1.875000 1.625000 0.000000
1.750000 1.666667 0.000000
1.708333 1.625000 0.000000
1.833333 1.583333 0.000000
1.791667 1.541667 0.000000
1.833333 1.750000 0.000000
1.791667 1.708333 0.000000
1.750000 1.833333 0.000000
1.708333 1.791667 0.000000
1.583333 1.833333 0.000000
1.541667 1.791667 0.000000
1.666667 1.750000 0.000000
1.625000 1.708333 0.000000
1.666667 1.916667 0.000000
1.625000 1.875000 0.000000
1.541667 1.958333 0.000000
1.375000 1.958333 0.000000
1.500000 1.916667 0.000000
1.458333 1.875000 0.000000
1.666667 1.583333 0.000000
1.625000 1.541667 0.000000
1.583333 1.666667 0.000000
1.541667 1.625000 0.000000
1.416667 1.666667 0.000000
1.500000 1.583333 0.000000
1.500000 1.750000 0.000000
1.458333 1.708333 0.000000
1.416667 1.833333 0.000000
1.375000 1.791667 0.000000
1.250000 1.833333 0.000000
1.333333 1.750000 0.000000
1.333333 1.916667 0.000000
1.291667 1.875000 0.000000
1.208333 1.958333 0.000000
1.166667 1.916667 0.000000
0.666667 2.333333 0.000000
0.333333 2.333333 0.000000
0.666667 2.666667 0.000000
0.333333 2.666667 0.000000
0.833333 2.333333 0.000000
0.666667 2.166667 0.000000
0.833333 2.166667 0.000000
0.500000 2.333333 0.000000
0.333333 2.166667 0.000000
0.500000 2.166667 0.000000
0.166667 2.333333 0.000000
0.166667 2.166667 0.000000
0.833333 2.666667 0.000000
0.666667 2.500000 0.000000
0.833333 2.500000 0.000000
0.500000 2.666667 0.000000
0.333333 2.500000 0.000000
0.500000 2.500000 0.000000
0.166667 2.666667 0.000000
0.166667 2.500000 0.000000
0.666667 2.833333 0.000000
[...]
POINT_DATA 601
VECTORS sol double
+0.000000 +0.000000 0
+0.000000 +0.000000 0
+0.000000 +0.000000 0
+0.000000 +0.000000 0
+0.000000 +0.000000 0
+0.000000 +0.000000 0
+0.000000 +0.000000 0
+0.000000 +0.000000 0
+0.000000 +0.000000 0
+0.205899 +0.828810 0
+0.000000 +0.000000 0
+0.000000 +0.000000 0
+0.000000 +0.000000 0
+0.000000 +0.000000 0
+0.000000 +0.000000 0
+0.000000 +0.000000 0
+0.000000 +0.000000 0
+0.000000 +0.000000 0
+0.000000 +0.000000 0
+0.000000 +0.000000 0
+0.000000 +0.000000 0
+0.000000 +0.000000 0
+0.000000 +0.000000 0
+0.000000 +0.000000 0
+0.000000 +0.000000 0
+0.000000 +0.000000 0
+0.000000 +0.000000 0
+0.000000 +0.000000 0
+0.000000 +0.000000 0
+0.000000 +0.000000 0
+0.000000 +0.000000 0
+0.000000 +0.000000 0
+0.000000 +0.000000 0
+0.000000 +0.000000 0
+0.000000 +0.000000 0
+0.000000 +0.000000 0
+0.000000 +0.000000 0
+0.000000 +0.000000 0
+0.000000 +0.000000 0
+0.000000 +0.000000 0
+0.000000 +0.000000 0
+0.000000 +0.000000 0
+0.000000 +0.000000 0
+0.000000 +0.000000 0
+0.000000 +0.000000 0
+0.000000 +0.000000 0
+0.000000 +0.000000 0
+0.000000 +0.000000 0
+0.000000 +0.000000 0
+0.000000 +0.000000 0
+0.000000 +0.000000 0
+0.000000 +0.000000 0
+0.000000 +0.000000 0
+0.000000 +0.000000 0
+0.000000 +0.000000 0
+0.000000 +0.000000 0
+0.000000 +0.000000 0
+0.000000 +0.000000 0
+0.000000 +0.000000 0
+0.000000 +0.000000 0
+0.000000 +0.000000 0
+0.000000 +0.000000 0
+0.000000 +0.000000 0
+0.000000 +0.000000 0
+0.000000 +0.000000 0
+0.000000 +0.000000 0
+0.000000 +0.000000 0
+0.000000 +0.000000 0
+0.000000 +0.000000 0
+0.000000 +0.000000 0
+0.000000 +0.000000 0
+0.000000 +0.000000 0
+0.000000 +0.000000 0
+0.000000 +0.000000 0
+0.000000 +0.000000 0
+0.000000 +0.000000 0
+0.000000 +0.000000 0
+0.000000 +0.000000 0
+0.000000 +0.000000 0
+0.000000 +0.000000 0
+0.000000 +0.000000 0
+0.000000 +0.000000 0
+0.000000 +0.000000 0
+0.000000 +0.000000 0
+0.000000 +0.000000 0
+0.000000 +0.000000 0
+0.000000 +0.000000 0
+0.000000 +0.000000 0
+0.000000 +0.000000 0
+0.000000 +0.000000 0
+0.000000 +0.000000 0
+0.000000 +0.000000 0
+0.000000 +0.000000 0
+0.000000 +0.000000 0
+0.000000 +0.000000 0
+0.000000 +0.000000 0
+0.000000 +0.000000 0
+0.000000 +0.000000 0
+0.000000 +0.000000 0
+0.000000 +0.000000 0
+0.000000 +0.000000 0
+0.000000 +0.000000 0
+0.000000 +0.000000 0
+0.000000 +0.000000 0
+0.000000 +0.000000 0
+0.000000 +0.000000 0
+0.000000 +0.000000 0
+0.000000 +0.000000 0
+0.000000 +0.000000 0
+0.000000 +0.000000 0
-0.146373 -0.589199 0
-0.172466 -0.694235 0
-0.120406 -0.484676 0
-0.014512 -0.058416 0
+0.107458 +0.432554 0
-0.084486 -0.340082 0
-0.173085 -0.696725 0
-0.155328 -0.625247 0
-0.072265 -0.290892 0
+0.046874 +0.188685 0
+0.161818 +0.651370 0
-0.204950 -0.824993 0
-0.295462 -1.189333 0
-0.273260 -1.099964 0
-0.172666 -0.695039 0
-0.061920 -0.249247 0
-0.113765 -0.457943 0
-0.265692 -1.069500 0
-0.297909 -1.199184 0
-0.229145 -0.922386 0
-0.114299 -0.460092 0
-0.022414 -0.090222 0
+0.250876 +1.009861 0
+0.231682 +0.932596 0
+0.160214 +0.644914 0
+0.067127 +0.270208 0
-0.005826 -0.023452 0
+0.236334 +0.951323 0
+0.249198 +1.003106 0
+0.201008 +0.809124 0
+0.114000 +0.458890 0
+0.024430 +0.098337 0
-0.012933 -0.052061 0
+0.183316 +0.737907 0
+0.142042 +0.571766 0
+0.095076 +0.382712 0
+0.053713 +0.216213 0
+0.022873 +0.092070 0
+0.197628 +0.795520 0
+0.164272 +0.661250 0
+0.118587 +0.477354 0
+0.073424 +0.295555 0
+0.037262 +0.149993 0
+0.011164 +0.044940 0
+0.000000 +0.000000 0
+0.000000 +0.000000 0
+0.000000 +0.000000 0
+0.000000 +0.000000 0
+0.000000 +0.000000 0
+0.000000 +0.000000 0
+0.000000 +0.000000 0
+0.000000 +0.000000 0
+0.000000 +0.000000 0
+0.000000 +0.000000 0
+0.000000 +0.000000 0
-0.054667 -0.220053 0
-0.086163 -0.346833 0
-0.066631 -0.268211 0
+0.008101 +0.032609 0
+0.114560 +0.461142 0
-0.027785 -0.111843 0
-0.075534 -0.304049 0
-0.083754 -0.337139 0
-0.035447 -0.142688 0
+0.059876 +0.241019 0
+0.165646 +0.666782 0
-0.102704 -0.413419 0
-0.134156 -0.540022 0
-0.037080 -0.149258 0
-0.090164 -0.362940 0
-0.047576 -0.191508 0
-0.137968 -0.555368 0
-0.075374 -0.303405 0
-0.139638 -0.562091 0
-0.096523 -0.388539 0
-0.150405 -0.605430 0
-0.080114 -0.322485 0
+0.003099 +0.012473 0
-0.013470 -0.054220 0
-0.070239 -0.282734 0
-0.030010 -0.120800 0
-0.065740 -0.264625 0
-0.128210 -0.516089 0
-0.108575 -0.437051 0
-0.099548 -0.400714 0
-0.114981 -0.462837 0
-0.011414 -0.045947 0
-0.003164 -0.012736 0
-0.039234 -0.157929 0
-0.024394 -0.098192 0
-0.051088 -0.205646 0
-0.032198 -0.129609 0
-0.097082 -0.390787 0
-0.022749 -0.091574 0
-0.058274 -0.234573 0
-0.075617 -0.304382 0
-0.119586 -0.481374 0
-0.110495 -0.444778 0
-0.160538 -0.646217 0
-0.153043 -0.616051 0
-0.142153 -0.572215 0
-0.124882 -0.502691 0
-0.148343 -0.597129 0
-0.143208 -0.576459 0
-0.121562 -0.489329 0
-0.131170 -0.528003 0
-0.060091 -0.241888 0
-0.050685 -0.204025 0
+0.055457 +0.223234 0
-0.112981 -0.454787 0
-0.043623 -0.175598 0
-0.038869 -0.156459 0
+0.059697 +0.240300 0
-0.013007 -0.052359 0
-0.038905 -0.156607 0
-0.005340 -0.021496 0
-0.021138 -0.085088 0
-0.024181 -0.097338 0
-0.053329 -0.214666 0
-0.049336 -0.198592 0
-0.086459 -0.348024 0
-0.090566 -0.364560 0
-0.125968 -0.507064 0
-0.051219 -0.206175 0
-0.087961 -0.354073 0
-0.079091 -0.318366 0
-0.112178 -0.451553 0
-0.121738 -0.490035 0
-0.136140 -0.548009 0
-0.126240 -0.508159 0
-0.104331 -0.419967 0
-0.097324 -0.391762 0
-0.112911 -0.454506 0
-0.095979 -0.386345 0
-0.094887 -0.381954 0
-0.001060 -0.004268 0
-0.007362 -0.029634 0
-0.000864 -0.003479 0
-0.003850 -0.015499 0
-0.006599 -0.026565 0
-0.022679 -0.091290 0
-0.017366 -0.069904 0
-0.043728 -0.176021 0
-0.009412 -0.037885 0
-0.016708 -0.067254 0
-0.031748 -0.127796 0
-0.064715 -0.260498 0
-0.045770 -0.184239 0
-0.077711 -0.312812 0
-0.023717 -0.095471 0
-0.054133 -0.217903 0
-0.001046 -0.004212 0
+0.066104 +0.266090 0
+0.169557 +0.682524 0
+0.154959 +0.623760 0
-0.027367 -0.110161 0
-0.050094 -0.201647 0
-0.046556 -0.187403 0
+0.018251 +0.073468 0
+0.043941 +0.176875 0
-0.002578 -0.010377 0
+0.051936 +0.209062 0
+0.022410 +0.090207 0
+0.074863 +0.301350 0
+0.101771 +0.409663 0
+0.004347 +0.017497 0
+0.121114 +0.487525 0
+0.189000 +0.760788 0
+0.119684 +0.481769 0
+0.082103 +0.330494 0
+0.076421 +0.307619 0
+0.236372 +0.951475 0
+0.201279 +0.810214 0
+0.141613 +0.570038 0
+0.211828 +0.852679 0
+0.057249 +0.230446 0
-0.026622 -0.107164 0
-0.052175 -0.210023 0
-0.019485 -0.078433 0
-0.038247 -0.153958 0
-0.021460 -0.086386 0
-0.026390 -0.106229 0
-0.055398 -0.222994 0
-0.070706 -0.284616 0
-0.007974 -0.032097 0
-0.015349 -0.061786 0
+0.003938 +0.015853 0
+0.008881 +0.035750 0
+0.039695 +0.159784 0
+0.059002 +0.237501 0
+0.015299 +0.061585 0
+0.023099 +0.092983 0
+0.010245 +0.041239 0
+0.023195 +0.093367 0
+0.015667 +0.063066 0
+0.030209 +0.121603 0
+0.037166 +0.149605 0
+0.064101 +0.258027 0
-0.029956 -0.120582 0
-0.032840 -0.132192 0
+0.032078 +0.129125 0
+0.041232 +0.165973 0
+0.122646 +0.493690 0
+0.140672 +0.566252 0
+0.049725 +0.200160 0
+0.056210 +0.226264 0
+0.080186 +0.322777 0
+0.101908 +0.410212 0
+0.094524 +0.380492 0
+0.126516 +0.509270 0
+0.142644 +0.574190 0
+0.178365 +0.717978 0
+0.157833 +0.635332 0
+0.186240 +0.749677 0
+0.065755 +0.264688 0
+0.104184 +0.419376 0
+0.040872 +0.164524 0
+0.040199 +0.161813 0
+0.082582 +0.332421 0
+0.121876 +0.490592 0
+0.154587 +0.622263 0
+0.163138 +0.656685 0
+0.209645 +0.843891 0
+0.226446 +0.911521 0
+0.245029 +0.986325 0
+0.235465 +0.947825 0
+0.208604 +0.839701 0
+0.231342 +0.931228 0
+0.155483 +0.625873 0
+0.180840 +0.727943 0
+0.112451 +0.452651 0
+0.196212 +0.789818 0
+0.074172 +0.298568 0
+0.098957 +0.398335 0
+0.022370 +0.090046 0
+0.030972 +0.124674 0
+0.031741 +0.127770 0
+0.076445 +0.307718 0
+0.239407 +0.963695 0
+0.253113 +1.018864 0
+0.008827 +0.035532 0
-0.158954 -0.639844 0
-0.109096 -0.439149 0
+0.062281 +0.250701 0
-0.083049 -0.334298 0
-0.140447 -0.565348 0
+0.053976 +0.217273 0
-0.029133 -0.117271 0
+0.135334 +0.544765 0
+0.188850 +0.760184 0
+0.103653 +0.417238 0
+0.284343 +1.144576 0
+0.214350 +0.862831 0
+0.232735 +0.936836 0
+0.149049 +0.599974 0
+0.129241 +0.520237 0
+0.162308 +0.653345 0
+0.092450 +0.372143 0
+0.168275 +0.677365 0
+0.190859 +0.768271 0
+0.098419 +0.396171 0
-0.058678 -0.236197 0
-0.161415 -0.649747 0
+0.003262 +0.013130 0
-0.050207 -0.202101 0
+0.018502 +0.074476 0
-0.065073 -0.261940 0
-0.143267 -0.576697 0
-0.239357 -0.963491 0
-0.157251 -0.632986 0
-0.221238 -0.890557 0
+0.047478 +0.191115 0
-0.041774 -0.168153 0
+0.073115 +0.294313 0
-0.006661 -0.026813 0
-0.113983 -0.458818 0
-0.141571 -0.569871 0
-0.053735 -0.216302 0
-0.056386 -0.226974 0
+0.070224 +0.282675 0
+0.009509 +0.038275 0
+0.029385 +0.118283 0
-0.012987 -0.052278 0
+0.053019 +0.213419 0
+0.062246 +0.250559 0
+0.069772 +0.280856 0
+0.129196 +0.520059 0
+0.193498 +0.778893 0
+0.230657 +0.928470 0
+0.150203 +0.604618 0
+0.120168 +0.483716 0
+0.217833 +0.876850 0
+0.158183 +0.636740 0
+0.271133 +1.091399 0
+0.277201 +1.115828 0
+0.279013 +1.123121 0
+0.249515 +1.004383 0
+0.232489 +0.935845 0
+0.153972 +0.619787 0
+0.179571 +0.722833 0
+0.096208 +0.387269 0
+0.209270 +0.842380 0
+0.148083 +0.596085 0
+0.077663 +0.312620 0
+0.067728 +0.272628 0
+0.047760 +0.192248 0
+0.122652 +0.493713 0
+0.049725 +0.200159 0
+0.087174 +0.350904 0
+0.131734 +0.530275 0
+0.215892 +0.869039 0
+0.182919 +0.736311 0
+0.254746 +1.025437 0
+0.102315 +0.411852 0
+0.090043 +0.362454 0
+0.186351 +0.750123 0
+0.225352 +0.907117 0
+0.138598 +0.557904 0
+0.132115 +0.531805 0
+0.052594 +0.211710 0
+0.051192 +0.206065 0
-0.172130 -0.692881 0
+0.122037 +0.491239 0
-0.259782 -1.045711 0
-0.014349 -0.057760 0
-0.276586 -1.113353 0
-0.036807 -0.148160 0
-0.139773 -0.562634 0
-0.019783 -0.079634 0
+0.193419 +0.778576 0
+0.086802 +0.349407 0
+0.187292 +0.753914 0
+0.232844 +0.937275 0
-0.265817 -1.070001 0
-0.263308 -1.059901 0
-0.326963 -1.316134 0
-0.154707 -0.622748 0
+0.043045 +0.173270 0
-0.115590 -0.465289 0
+0.073335 +0.295199 0
+0.129000 +0.519269 0
-0.157954 -0.635817 0
-0.133411 -0.537023 0
-0.029829 -0.120073 0
-0.112995 -0.454844 0
+0.029984 +0.120695 0
-0.172348 -0.693758 0
-0.057254 -0.230467 0
-0.300599 -1.210013 0
-0.214922 -0.865131 0
-0.233422 -0.939600 0
-0.105405 -0.424289 0
-0.091707 -0.369152 0
+0.021050 +0.084731 0
+0.023625 +0.095099 0
+0.129591 +0.521649 0
-0.098516 -0.396560 0
+0.035516 +0.142964 0
+0.056888 +0.228995 0
+0.160519 +0.646141 0
+0.145780 +0.586812 0
+0.217757 +0.876545 0
+0.223711 +0.900511 0
+0.245941 +0.989996 0
+0.167636 +0.674791 0
+0.212748 +0.856382 0
+0.178568 +0.718796 0
+0.219052 +0.881757 0
-0.314561 -1.266213 0
-0.316452 -1.273823 0
-0.228640 -0.920354 0
-0.309210 -1.244674 0
-0.277421 -1.116712 0
-0.275154 -1.107587 0
-0.309139 -1.244389 0
-0.227270 -0.914836 0
-0.196173 -0.789660 0
-0.072099 -0.290221 0
-0.217159 -0.874138 0
-0.144554 -0.581878 0
-0.083459 -0.335952 0
+0.010197 +0.041048 0
-0.032166 -0.129480 0
+0.081731 +0.328995 0
+0.099690 +0.401285 0
+0.158890 +0.639585 0
+0.041179 +0.165759 0
+0.100324 +0.403839 0
+0.077831 +0.313294 0
+0.127476 +0.513135 0
-0.099802 -0.401734 0
-0.204503 -0.823194 0
-0.061681 -0.248287 0
-0.082346 -0.331470 0
-0.154491 -0.621876 0
-0.219932 -0.885299 0
-0.143875 -0.579145 0
-0.144498 -0.581654 0
-0.064046 -0.257807 0
-0.020195 -0.081293 0
-0.072726 -0.292746 0
-0.027939 -0.112466 0
+0.006961 +0.028022 0
+0.050193 +0.202042 0
+0.013933 +0.056083 0
+0.035847 +0.144295 0
-0.141106 -0.567997 0
-0.208035 -0.837409 0
-0.157949 -0.635799 0
-0.132614 -0.533816 0
+0.009023 +0.036322 0
-0.081671 -0.328754 0
+0.061815 +0.248826 0
-0.227842 -0.917138 0
-0.198934 -0.800775 0
-0.185171 -0.745375 0
-0.107463 -0.432575 0
-0.119586 -0.481374 0
-0.051371 -0.206786 0
-0.171882 -0.691883 0
-0.033539 -0.135005 0
-0.187927 -0.756467 0
-0.186993 -0.752709 0
-0.232225 -0.934784 0
-0.049683 -0.199991 0
-0.084890 -0.341712 0
-0.096278 -0.387551 0
-0.038603 -0.155389 0
-0.061177 -0.246256 0
-0.101970 -0.410462 0
-0.017139 -0.068991 0
+0.129040 +0.519429 0
+0.086602 +0.348603 0
+0.082904 +0.333718 0
+0.035266 +0.141959 0
-0.069349 -0.279152 0
-0.113781 -0.458006 0
-0.011049 -0.044475 0
-0.047721 -0.192094 0
-0.142073 -0.571892 0
-0.154363 -0.621361 0
-0.196678 -0.791696 0
-0.210358 -0.846762 0
-0.231327 -0.931170 0
-0.206650 -0.831836 0
-0.205287 -0.826349 0
-0.189819 -0.764083 0
-0.168893 -0.679851 0
-0.124655 -0.501777 0
-0.163647 -0.658732 0
-0.113723 -0.457771 0
-0.050885 -0.204831 0
-0.056445 -0.227208 0
+0.038253 +0.153982 0
-0.014576 -0.058674 0
+0.007531 +0.030315 0
-0.046166 -0.185836 0
-0.110607 -0.445231 0
-0.171273 -0.689430 0
-0.107854 -0.434147 0
-0.161454 -0.649905 0
-0.215659 -0.868099 0
-0.236002 -0.949986 0
-0.185271 -0.745777 0
-0.216398 -0.871074 0
-0.168322 -0.677551 0
-0.163401 -0.657744 0
-0.221273 -0.890699 0
-0.201917 -0.812785 0
-0.138002 -0.555506 0
-0.098314 -0.395747 0
-0.089944 -0.362054 0
-0.067731 -0.272641 0
-0.018274 -0.073559 0
-0.036254 -0.145934 0
-0.004044 -0.016278 0
-0.048819 -0.196513 0
-0.022002 -0.088566 0
-0.051413 -0.206956 0
-0.072107 -0.290255 0
-0.132927 -0.535076 0
-0.106933 -0.430442 0
-0.149061 -0.600020 0
-0.050839 -0.204644 0
-0.027184 -0.109423 0
-0.084956 -0.341978 0
-0.097267 -0.391533 0
-0.036572 -0.147216 0
-0.031791 -0.127967 0
-0.006147 -0.024744 0
-0.004856 -0.019548 0
