# vtk DataFile Version 2.0
MyTitle
ASCII
DATASET UNSTRUCTURED_GRID
POINTS 601 double
2.000000 0.000000 0.000000
2.000000 1.000000 0.000000
3.000000 1.000000 0.000000
2.000000 2.000000 0.000000
1.000000 2.000000 0.000000
1.000000 3.000000 0.000000
0.000000 3.000000 0.000000
0.000000 2.000000 0.000000
1.000000 1.000000 0.000000
1.500000 1.500000 0.000000
2.500000 1.500000 0.000000
2.000000 0.166667 0.000000
2.000000 0.333333 0.000000
2.000000 0.500000 0.000000
2.000000 0.666667 0.000000
2.000000 0.833333 0.000000
2.000000 0.083333 0.000000
2.000000 0.250000 0.000000
2.000000 0.416667 0.000000
2.000000 0.583333 0.000000
2.000000 0.750000 0.000000
2.000000 0.916667 0.000000
2.166667 1.000000 0.000000
2.333333 1.000000 0.000000
2.500000 1.000000 0.000000
2.666667 1.000000 0.000000
2.833333 1.000000 0.000000
2.083333 1.000000 0.000000
2.250000 1.000000 0.000000
2.416667 1.000000 0.000000
2.583333 1.000000 0.000000
2.750000 1.000000 0.000000
2.916667 1.000000 0.000000
2.916667 1.083333 0.000000
2.833333 1.166667 0.000000
2.750000 1.250000 0.000000
2.666667 1.333333 0.000000
2.583333 1.416667 0.000000
2.958333 1.041667 0.000000
2.875000 1.125000 0.000000
2.791667 1.208333 0.000000
2.708333 1.291667 0.000000
2.625000 1.375000 0.000000
2.541667 1.458333 0.000000
1.833333 2.000000 0.000000
1.666667 2.000000 0.000000
1.500000 2.000000 0.000000
1.333333 2.000000 0.000000
1.166667 2.000000 0.000000
1.916667 2.000000 0.000000
1.750000 2.000000 0.000000
1.583333 2.000000 0.000000
1.416667 2.000000 0.000000
1.250000 2.000000 0.000000
1.083333 2.000000 0.000000
1.000000 2.166667 0.000000
1.000000 2.333333 0.000000
1.000000 2.500000 0.000000
1.000000 2.666667 0.000000
1.000000 2.833333 0.000000
1.000000 2.083333 0.000000
1.000000 2.250000 0.000000
1.000000 2.416667 0.000000
1.000000 2.583333 0.000000
1.000000 2.750000 0.000000
1.000000 2.916667 0.000000
0.833333 3.000000 0.000000
0.666667 3.000000 0.000000
0.500000 3.000000 0.000000
0.333333 3.000000 0.000000
0.166667 3.000000 0.000000
0.916667 3.000000 0.000000
0.750000 3.000000 0.000000
0.583333 3.000000 0.000000
0.416667 3.000000 0.000000
0.250000 3.000000 0.000000
0.083333 3.000000 0.000000
0.000000 2.833333 0.000000
0.000000 2.666667 0.000000
0.000000 2.500000 0.000000
0.000000 2.333333 0.000000
0.000000 2.166667 0.000000
0.000000 2.916667 0.000000
0.000000 2.750000 0.000000
0.000000 2.583333 0.000000
0.000000 2.416667 0.000000
0.000000 2.250000 0.000000
0.000000 2.083333 0.000000
0.166667 1.833333 0.000000
0.333333 1.666667 0.000000
0.500000 1.500000 0.000000
0.666667 1.333333 0.000000
0.833333 1.166667 0.000000
0.083333 1.916667 0.000000
0.250000 1.750000 0.000000
0.416667 1.583333 0.000000
0.583333 1.416667 0.000000
0.750000 1.250000 0.000000
0.916667 1.083333 0.000000
1.166667 0.833333 0.000000
1.333333 0.666667 0.000000
1.500000 0.500000 0.000000
1.666667 0.333333 0.000000
1.833333 0.166667 0.000000
1.083333 0.916667 0.000000
1.250000 0.750000 0.000000
1.416667 0.583333 0.000000
1.583333 0.416667 0.000000
1.750000 0.250000 0.000000
1.916667 0.083333 0.000000
1.916667 1.083333 0.000000
1.833333 1.166667 0.000000
1.750000 1.250000 0.000000
1.666667 1.333333 0.000000
1.583333 1.416667 0.000000
1.958333 1.041667 0.000000
1.875000 1.125000 0.000000
1.791667 1.208333 0.000000
1.708333 1.291667 0.000000
1.625000 1.375000 0.000000
1.541667 1.458333 0.000000
0.833333 2.000000 0.000000
0.666667 2.000000 0.000000
0.500000 2.000000 0.000000
0.333333 2.000000 0.000000
0.166667 2.000000 0.000000
0.916667 2.000000 0.000000
0.750000 2.000000 0.000000
0.583333 2.000000 0.000000
0.416667 2.000000 0.000000
0.250000 2.000000 0.000000
0.083333 2.000000 0.000000
1.416667 1.583333 0.000000
1.333333 1.666667 0.000000
1.250000 1.750000 0.000000
1.166667 1.833333 0.000000
1.083333 1.916667 0.000000
1.458333 1.541667 0.000000
1.375000 1.625000 0.000000
1.291667 1.708333 0.000000
1.208333 1.791667 0.000000
1.125000 1.875000 0.000000
1.041667 1.958333 0.000000
1.416667 1.416667 0.000000
1.333333 1.333333 0.000000
1.250000 1.250000 0.000000
1.166667 1.166667 0.000000
1.083333 1.083333 0.000000
1.458333 1.458333 0.000000
1.375000 1.375000 0.000000
1.291667 1.291667 0.000000
1.208333 1.208333 0.000000
1.125000 1.125000 0.000000
1.041667 1.041667 0.000000
2.416667 1.583333 0.000000
2.333333 1.666667 0.000000
2.250000 1.750000 0.000000
2.166667 1.833333 0.000000
2.083333 1.916667 0.000000
2.458333 1.541667 0.000000
2.375000 1.625000 0.000000
2.291667 1.708333 0.000000
2.208333 1.791667 0.000000
2.125000 1.875000 0.000000
2.041667 1.958333 0.000000
2.333333 1.500000 0.000000
2.166667 1.500000 0.000000
2.000000 1.500000 0.000000
1.833333 1.500000 0.000000
1.666667 1.500000 0.000000
2.416667 1.500000 0.000000
2.250000 1.500000 0.000000
2.083333 1.500000 0.000000
1.916667 1.500000 0.000000
1.750000 1.500000 0.000000
1.583333 1.500000 0.000000
2.166667 1.166667 0.000000
2.000000 1.333333 0.000000
2.500000 1.166667 0.000000
2.333333 1.333333 0.000000
2.250000 1.083333 0.000000
2.000000 1.166667 0.000000
2.083333 1.083333 0.000000
2.083333 1.250000 0.000000
1.833333 1.333333 0.000000
1.916667 1.250000 0.000000
1.916667 1.416667 0.000000
1.750000 1.416667 0.000000
2.583333 1.083333 0.000000
2.333333 1.166667 0.000000
2.416667 1.083333 0.000000
2.416667 1.250000 0.000000
2.166667 1.333333 0.000000
2.250000 1.250000 0.000000
2.250000 1.416667 0.000000
2.083333 1.416667 0.000000
2.666667 1.166667 0.000000
2.750000 1.083333 0.000000
2.500000 1.333333 0.000000
2.583333 1.250000 0.000000
2.416667 1.416667 0.000000
2.125000 1.041667 0.000000
2.000000 1.083333 0.000000
2.291667 1.041667 0.000000
2.166667 1.083333 0.000000
2.208333 1.125000 0.000000
2.083333 1.166667 0.000000
2.041667 1.125000 0.000000
1.916667 1.166667 0.000000
1.958333 1.208333 0.000000
1.833333 1.250000 0.000000
2.125000 1.208333 0.000000
2.000000 1.250000 0.000000
2.041667 1.291667 0.000000
1.916667 1.333333 0.000000
1.875000 1.291667 0.000000
1.750000 1.333333 0.000000
1.791667 1.375000 0.000000
1.666667 1.416667 0.000000
1.958333 1.375000 0.000000
1.833333 1.416667 0.000000
1.875000 1.458333 0.000000
1.708333 1.458333 0.000000
2.458333 1.041667 0.000000
2.333333 1.083333 0.000000
2.625000 1.041667 0.000000
2.500000 1.083333 0.000000
2.541667 1.125000 0.000000
2.416667 1.166667 0.000000
2.375000 1.125000 0.000000
2.250000 1.166667 0.000000
2.291667 1.208333 0.000000
2.166667 1.250000 0.000000
2.458333 1.208333 0.000000
2.333333 1.250000 0.000000
2.375000 1.291667 0.000000
2.250000 1.333333 0.000000
2.208333 1.291667 0.000000
2.083333 1.333333 0.000000
2.125000 1.375000 0.000000
2.000000 1.416667 0.000000
2.291667 1.375000 0.000000
2.166667 1.416667 0.000000
2.208333 1.458333 0.000000
2.041667 1.458333 0.000000
2.791667 1.041667 0.000000
2.666667 1.083333 0.000000
2.833333 1.083333 0.000000
2.750000 1.166667 0.000000
2.708333 1.125000 0.000000
2.583333 1.166667 0.000000
2.625000 1.208333 0.000000
2.500000 1.250000 0.000000
2.666667 1.250000 0.000000
2.583333 1.333333 0.000000
2.541667 1.291667 0.000000
2.416667 1.333333 0.000000
2.458333 1.375000 0.000000
2.333333 1.416667 0.000000
2.500000 1.416667 0.000000
2.375000 1.458333 0.000000
2.000000 1.666667 0.000000
1.833333 1.833333 0.000000
1.666667 1.666667 0.000000
1.500000 1.833333 0.000000
2.166667 1.666667 0.000000
2.083333 1.583333 0.000000
2.250000 1.583333 0.000000
2.000000 1.833333 0.000000
1.916667 1.750000 0.000000
2.083333 1.750000 0.000000
1.750000 1.916667 0.000000
1.916667 1.916667 0.000000
1.833333 1.666667 0.000000
1.750000 1.583333 0.000000
1.916667 1.583333 0.000000
1.666667 1.833333 0.000000
1.583333 1.750000 0.000000
1.750000 1.750000 0.000000
1.416667 1.916667 0.000000
1.583333 1.916667 0.000000
1.500000 1.666667 0.000000
1.583333 1.583333 0.000000
1.333333 1.833333 0.000000
1.416667 1.750000 0.000000
1.250000 1.916667 0.000000
2.333333 1.583333 0.000000
2.291667 1.541667 0.000000
2.250000 1.666667 0.000000
2.208333 1.625000 0.000000
2.083333 1.666667 0.000000
2.041667 1.625000 0.000000
2.166667 1.583333 0.000000
2.125000 1.541667 0.000000
2.166667 1.750000 0.000000
2.125000 1.708333 0.000000
2.083333 1.833333 0.000000
2.041667 1.791667 0.000000
1.916667 1.833333 0.000000
1.875000 1.791667 0.000000
2.000000 1.750000 0.000000
1.958333 1.708333 0.000000
2.000000 1.916667 0.000000
1.958333 1.875000 0.000000
1.875000 1.958333 0.000000
1.708333 1.958333 0.000000
1.833333 1.916667 0.000000
1.791667 1.875000 0.000000
2.000000 1.583333 0.000000
1.958333 1.541667 0.000000
1.916667 1.666667 0.000000
1.875000 1.625000 0.000000
1.750000 1.666667 0.000000
1.708333 1.625000 0.000000
1.833333 1.583333 0.000000
1.791667 1.541667 0.000000
1.833333 1.750000 0.000000
1.791667 1.708333 0.000000
1.750000 1.833333 0.000000
1.708333 1.791667 0.000000
1.583333 1.833333 0.000000
1.541667 1.791667 0.000000
1.666667 1.750000 0.000000
1.625000 1.708333 0.000000
1.666667 1.916667 0.000000
1.625000 1.875000 0.000000
1.541667 1.958333 0.000000
1.375000 1.958333 0.000000
1.500000 1.916667 0.000000
1.458333 1.875000 0.000000
1.666667 1.583333 0.000000
1.625000 1.541667 0.000000
1.583333 1.666667 0.000000
1.541667 1.625000 0.000000
1.416667 1.666667 0.000000
1.500000 1.583333 0.000000
1.500000 1.750000 0.000000
1.458333 1.708333 0.000000
1.416667 1.833333 0.000000
1.375000 1.791667 0.000000
1.250000 1.833333 0.000000
1.333333 1.750000 0.000000
1.333333 1.916667 0.000000
1.291667 1.875000 0.000000
1.208333 1.958333 0.000000
1.166667 1.916667 0.000000
0.666667 2.333333 0.000000
0.333333 2.333333 0.000000
0.666667 2.666667 0.000000
0.333333 2.666667 0.000000
0.833333 2.333333 0.000000
0.666667 2.166667 0.000000
0.833333 2.166667 0.000000
0.500000 2.333333 0.000000
0.333333 2.166667 0.000000
0.500000 2.166667 0.000000
0.166667 2.333333 0.000000
0.166667 2.166667 0.000000
0.833333 2.666667 0.000000
0.666667 2.500000 0.000000
0.833333 2.500000 0.000000
0.500000 2.666667 0.000000
0.333333 2.500000 0.000000
0.500000 2.500000 0.000000
0.166667 2.666667 0.000000
0.166667 2.500000 0.000000
0.666667 2.833333 0.000000
[...]
POINT_DATA 601
VECTORS sol double
+0.000000 +0.000000 0
+0.000000 +0.000000 0
+0.000000 +0.000000 0
+0.000000 +0.000000 0
+0.000000 +0.000000 0
+0.000000 +0.000000 0
+0.000000 +0.000000 0
+0.000000 +0.000000 0
+0.000000 +0.000000 0
+0.027741 -0.223146 0
+0.000000 +0.000000 0
+0.000000 +0.000000 0
+0.000000 +0.000000 0
+0.000000 +0.000000 0
+0.000000 +0.000000 0
+0.000000 +0.000000 0
+0.000000 +0.000000 0
+0.000000 +0.000000 0
+0.000000 +0.000000 0
+0.000000 +0.000000 0
+0.000000 +0.000000 0
+0.000000 +0.000000 0
+0.000000 +0.000000 0
+0.000000 +0.000000 0
+0.000000 +0.000000 0
+0.000000 +0.000000 0
+0.000000 +0.000000 0
+0.000000 +0.000000 0
+0.000000 +0.000000 0
+0.000000 +0.000000 0
+0.000000 +0.000000 0
+0.000000 +0.000000 0
+0.000000 +0.000000 0
+0.000000 +0.000000 0
+0.000000 +0.000000 0
+0.000000 +0.000000 0
+0.000000 +0.000000 0
+0.000000 +0.000000 0
+0.000000 +0.000000 0
+0.000000 +0.000000 0
+0.000000 +0.000000 0
+0.000000 +0.000000 0
+0.000000 +0.000000 0
+0.000000 +0.000000 0
+0.000000 +0.000000 0
+0.000000 +0.000000 0
+0.000000 +0.000000 0
+0.000000 +0.000000 0
+0.000000 +0.000000 0
+0.000000 +0.000000 0
+0.000000 +0.000000 0
+0.000000 +0.000000 0
+0.000000 +0.000000 0
+0.000000 +0.000000 0
+0.000000 +0.000000 0
+0.000000 +0.000000 0
+0.000000 +0.000000 0
+0.000000 +0.000000 0
+0.000000 +0.000000 0
+0.000000 +0.000000 0
+0.000000 +0.000000 0
+0.000000 +0.000000 0
+0.000000 +0.000000 0
+0.000000 +0.000000 0
+0.000000 +0.000000 0
+0.000000 +0.000000 0
+0.000000 +0.000000 0
+0.000000 +0.000000 0
+0.000000 +0.000000 0
+0.000000 +0.000000 0
+0.000000 +0.000000 0
+0.000000 +0.000000 0
+0.000000 +0.000000 0
+0.000000 +0.000000 0
+0.000000 +0.000000 0
+0.000000 +0.000000 0
+0.000000 +0.000000 0
+0.000000 +0.000000 0
+0.000000 +0.000000 0
+0.000000 +0.000000 0
+0.000000 +0.000000 0
+0.000000 +0.000000 0
+0.000000 +0.000000 0
+0.000000 +0.000000 0
+0.000000 +0.000000 0
+0.000000 +0.000000 0
+0.000000 +0.000000 0
+0.000000 +0.000000 0
+0.000000 +0.000000 0
+0.000000 +0.000000 0
+0.000000 +0.000000 0
+0.000000 +0.000000 0
+0.000000 +0.000000 0
+0.000000 +0.000000 0
+0.000000 +0.000000 0
+0.000000 +0.000000 0
+0.000000 +0.000000 0
+0.000000 +0.000000 0
+0.000000 +0.000000 0
+0.000000 +0.000000 0
+0.000000 +0.000000 0
+0.000000 +0.000000 0
+0.000000 +0.000000 0
+0.000000 +0.000000 0
+0.000000 +0.000000 0
+0.000000 +0.000000 0
+0.000000 +0.000000 0
+0.000000 +0.000000 0
+0.000000 +0.000000 0
+0.000000 +0.000000 0
-0.016105 +0.129549 0
-0.019643 +0.158003 0
-0.014734 +0.118515 0
-0.003102 +0.024949 0
+0.012242 -0.098477 0
-0.009114 +0.073314 0
-0.019240 +0.154761 0
-0.018195 +0.146360 0
-0.009601 +0.077228 0
+0.004312 -0.034684 0
+0.020174 -0.162281 0
+0.044854 -0.360799 0
+0.052098 -0.419070 0
+0.040160 -0.323040 0
+0.020568 -0.165446 0
+0.005495 -0.044201 0
+0.028323 -0.227825 0
+0.051985 -0.418165 0
+0.047962 -0.385801 0
+0.030530 -0.245576 0
+0.011908 -0.095786 0
+0.001553 -0.012495 0
+0.040102 -0.322575 0
+0.046953 -0.377684 0
+0.047058 -0.378529 0
+0.040143 -0.322906 0
+0.025976 -0.208952 0
+0.034464 -0.277227 0
+0.044294 -0.356298 0
+0.047869 -0.385054 0
+0.044461 -0.357640 0
+0.034245 -0.275462 0
+0.013705 -0.110238 0
-0.035007 +0.281592 0
-0.085842 +0.690500 0
-0.109740 +0.882735 0
-0.099668 +0.801722 0
-0.058878 +0.473604 0
-0.003967 +0.031908 0
-0.062995 +0.506726 0
-0.101848 +0.819251 0
-0.109034 +0.877058 0
-0.082565 +0.664141 0
-0.030685 +0.246825 0
+0.000000 +0.000000 0
+0.000000 +0.000000 0
+0.000000 +0.000000 0
+0.000000 +0.000000 0
+0.000000 +0.000000 0
+0.000000 +0.000000 0
+0.000000 +0.000000 0
+0.000000 +0.000000 0
+0.000000 +0.000000 0
+0.000000 +0.000000 0
+0.000000 +0.000000 0
+0.062929 -0.506195 0
+0.125458 -1.009171 0
+0.155094 -1.247556 0
+0.137039 -1.102325 0
+0.084337 -0.678395 0
+0.029360 -0.236168 0
+0.096447 -0.775810 0
+0.145937 -1.173901 0
+0.151834 -1.221334 0
+0.113274 -0.911163 0
+0.054484 -0.438264 0
+0.067922 -0.546361 0
+0.117987 -0.949072 0
+0.029955 -0.240955 0
+0.082356 -0.662466 0
+0.033878 -0.272514 0
+0.047050 -0.378466 0
+0.028136 -0.226320 0
+0.096495 -0.776199 0
+0.070127 -0.564090 0
+0.059223 -0.476380 0
+0.131823 -1.060366 0
+0.079141 -0.636602 0
+0.010731 -0.086316 0
+0.055037 -0.442714 0
+0.023248 -0.187002 0
+0.055223 -0.444210 0
+0.119216 -0.958958 0
+0.088957 -0.715562 0
+0.106980 -0.860537 0
+0.142094 -1.142986 0
+0.009122 -0.073375 0
+0.002489 -0.020019 0
+0.034152 -0.274717 0
+0.020078 -0.161508 0
+0.049225 -0.395963 0
+0.016733 -0.134599 0
+0.014734 -0.118520 0
+0.015869 -0.127648 0
+0.034389 -0.276618 0
+0.051251 -0.412258 0
+0.062938 -0.506269 0
+0.039088 -0.314416 0
+0.018251 -0.146809 0
+0.053452 -0.429965 0
+0.024789 -0.199404 0
+0.083220 -0.669409 0
+0.083904 -0.674914 0
+0.108251 -0.870757 0
+0.099198 -0.797938 0
+0.064822 -0.521424 0
+0.034388 -0.276616 0
+0.074968 -0.603031 0
+0.045189 -0.363494 0
+0.125947 -1.013102 0
+0.109424 -0.880197 0
+0.135633 -1.091015 0
+0.082334 -0.662286 0
+0.010198 -0.082028 0
+0.029313 -0.235793 0
+0.004213 -0.033887 0
+0.016713 -0.134439 0
+0.019313 -0.155350 0
+0.042789 -0.344190 0
+0.038423 -0.309070 0
+0.064366 -0.517750 0
+0.072119 -0.580114 0
+0.097593 -0.785029 0
+0.042015 -0.337964 0
+0.073730 -0.593077 0
+0.068813 -0.553522 0
+0.104077 -0.837182 0
+0.104851 -0.843412 0
+0.124555 -1.001904 0
+0.131806 -1.060231 0
+0.143159 -1.151551 0
+0.095233 -0.766046 0
+0.129246 -1.039642 0
+0.117203 -0.942772 0
+0.150016 -1.206708 0
+0.000834 -0.006711 0
+0.005846 -0.047029 0
+0.000678 -0.005452 0
+0.003060 -0.024612 0
+0.005240 -0.042153 0
+0.018286 -0.147088 0
+0.014070 -0.113182 0
+0.036490 -0.293522 0
+0.007657 -0.061590 0
+0.014204 -0.114254 0
+0.026789 -0.215486 0
+0.057847 -0.465312 0
+0.041659 -0.335104 0
+0.078927 -0.634879 0
+0.021831 -0.175607 0
+0.056352 -0.453293 0
+0.133092 -1.070575 0
+0.088245 -0.709836 0
+0.116804 -0.939557 0
+0.061167 -0.492018 0
+0.077950 -0.627019 0
+0.134950 -1.085522 0
+0.073112 -0.588104 0
+0.064568 -0.519375 0
+0.117811 -0.947655 0
+0.075787 -0.609622 0
+0.046522 -0.374220 0
+0.039298 -0.316110 0
+0.143795 -1.156667 0
+0.132235 -1.063683 0
+0.156165 -1.256178 0
+0.080876 -0.650561 0
+0.091980 -0.739877 0
+0.117847 -0.947949 0
+0.029054 -0.233709 0
+0.038937 -0.313204 0
+0.076488 -0.615259 0
+0.083776 -0.673885 0
+0.044600 -0.358757 0
+0.062915 -0.506079 0
+0.023408 -0.188289 0
+0.035603 -0.286386 0
+0.068560 -0.551488 0
+0.039515 -0.317856 0
+0.076295 -0.613708 0
+0.110357 -0.887697 0
+0.135629 -1.090981 0
+0.107678 -0.866153 0
+0.131519 -1.057927 0
+0.040169 -0.323112 0
+0.077859 -0.626290 0
+0.036567 -0.294143 0
+0.071560 -0.575617 0
+0.081310 -0.654046 0
+0.104913 -0.843905 0
+0.102381 -0.823545 0
+0.127318 -1.024128 0
+0.026642 -0.214304 0
+0.054195 -0.435942 0
+0.022358 -0.179849 0
+0.022787 -0.183299 0
+0.045843 -0.368760 0
+0.068483 -0.550870 0
+0.151616 -1.219581 0
+0.157285 -1.265187 0
+0.144203 -1.159956 0
+0.151768 -1.220805 0
+0.133694 -1.075419 0
+0.125823 -1.012104 0
+0.149004 -1.198572 0
+0.135980 -1.093806 0
+0.122472 -0.985152 0
+0.132464 -1.065522 0
+0.087309 -0.702306 0
+0.100421 -0.807777 0
+0.071438 -0.574639 0
+0.076983 -0.619246 0
+0.106685 -0.858166 0
+0.105373 -0.847608 0
+0.043497 -0.349884 0
+0.060004 -0.482662 0
+0.018575 -0.149411 0
+0.013855 -0.111451 0
+0.033786 -0.271773 0
+0.044924 -0.361367 0
+0.109203 -0.878415 0
+0.084842 -0.682456 0
+0.096609 -0.777108 0
+0.080942 -0.651092 0
+0.059282 -0.476859 0
+0.059722 -0.480394 0
+0.076568 -0.615901 0
+0.070368 -0.566035 0
+0.051749 -0.416264 0
+0.054213 -0.436080 0
+0.040559 -0.326252 0
+0.052751 -0.424319 0
+0.025337 -0.203806 0
+0.034210 -0.275184 0
+0.012119 -0.097485 0
+0.023560 -0.189512 0
-0.015410 +0.123958 0
-0.025840 +0.207854 0
-0.044842 +0.360702 0
-0.047703 +0.383717 0
-0.006358 +0.051145 0
+0.019781 -0.159119 0
+0.017356 -0.139608 0
-0.024057 +0.193514 0
+0.001055 -0.008489 0
+0.011304 -0.090931 0
-0.016952 +0.136363 0
-0.003022 +0.024307 0
-0.025265 +0.203230 0
-0.039970 +0.321514 0
-0.021804 +0.175387 0
-0.053448 +0.429933 0
-0.045578 +0.366622 0
-0.049459 +0.397841 0
-0.028130 +0.226274 0
-0.027446 +0.220771 0
-0.028988 +0.233175 0
-0.016477 +0.132542 0
-0.030190 +0.242842 0
-0.034171 +0.274865 0
-0.017680 +0.142214 0
+0.009523 -0.076602 0
+0.030185 -0.242809 0
-0.002905 +0.023366 0
+0.004696 -0.037777 0
-0.010635 +0.085547 0
+0.001647 -0.013247 0
+0.020445 -0.164458 0
+0.037443 -0.301185 0
+0.016424 -0.132114 0
+0.027607 -0.222064 0
-0.020217 +0.162620 0
-0.006635 +0.053373 0
-0.026181 +0.210595 0
-0.012391 +0.099669 0
+0.005812 -0.046754 0
+0.012670 -0.101912 0
-0.001962 +0.015782 0
+0.002608 -0.020982 0
-0.022739 +0.182909 0
-0.009861 +0.079321 0
-0.009063 +0.072902 0
-0.001996 +0.016056 0
-0.011136 +0.089577 0
-0.015434 +0.124148 0
-0.013010 +0.104654 0
-0.025211 +0.202793 0
-0.036172 +0.290960 0
-0.045211 +0.363672 0
-0.031695 +0.254955 0
-0.029800 +0.239707 0
-0.046205 +0.371669 0
-0.038948 +0.313290 0
-0.050866 +0.409162 0
-0.054567 +0.438929 0
-0.052510 +0.422382 0
-0.049243 +0.396105 0
-0.049424 +0.397557 0
-0.037447 +0.301219 0
-0.038153 +0.306895 0
-0.023140 +0.186133 0
-0.039463 +0.317433 0
-0.029254 +0.235312 0
-0.014658 +0.117907 0
-0.014374 +0.115619 0
-0.008506 +0.068420 0
-0.022253 +0.179004 0
-0.008773 +0.070566 0
-0.015407 +0.123933 0
-0.023497 +0.189003 0
-0.039268 +0.315865 0
-0.032702 +0.263051 0
-0.046467 +0.373777 0
-0.018122 +0.145774 0
-0.015979 +0.128531 0
-0.033392 +0.268604 0
-0.041201 +0.331414 0
-0.024877 +0.200112 0
-0.024188 +0.194563 0
-0.009344 +0.075166 0
-0.009197 +0.073976 0
+0.064634 -0.519907 0
+0.017192 -0.138287 0
+0.056518 -0.454628 0
+0.014482 -0.116492 0
+0.064782 -0.521101 0
+0.050433 -0.405680 0
+0.048228 -0.387944 0
+0.049845 -0.400946 0
+0.028091 -0.225960 0
+0.045659 -0.367275 0
-0.030970 +0.249121 0
-0.000357 +0.002868 0
+0.044502 -0.357968 0
+0.068770 -0.553176 0
+0.063128 -0.507794 0
+0.047577 -0.382702 0
+0.014261 -0.114717 0
+0.053114 -0.427247 0
-0.039010 +0.313788 0
-0.044156 +0.355188 0
+0.030498 -0.245325 0
+0.019609 -0.157733 0
+0.011289 -0.090806 0
+0.029100 -0.234074 0
-0.021104 +0.169759 0
+0.045188 -0.363491 0
+0.033748 -0.271464 0
+0.060715 -0.488388 0
+0.058531 -0.470818 0
+0.066464 -0.534633 0
+0.058061 -0.467033 0
+0.049457 -0.397826 0
+0.044520 -0.358115 0
+0.049594 -0.398932 0
+0.045474 -0.365787 0
+0.059269 -0.476753 0
+0.047305 -0.380519 0
+0.035780 -0.287814 0
+0.021531 -0.173189 0
+0.038416 -0.309015 0
+0.036759 -0.295685 0
+0.015007 -0.120719 0
+0.019337 -0.155542 0
-0.005355 +0.043073 0
-0.017512 +0.140861 0
-0.058326 +0.469166 0
-0.017285 +0.139041 0
+0.053318 -0.428887 0
+0.066579 -0.535558 0
+0.033172 -0.266833 0
+0.055392 -0.445565 0
+0.052793 -0.424659 0
+0.064811 -0.521335 0
+0.068460 -0.550688 0
+0.068579 -0.551639 0
+0.063838 -0.513504 0
+0.052150 -0.419493 0
+0.055089 -0.443126 0
+0.051911 -0.417568 0
+0.034099 -0.274287 0
+0.014447 -0.116207 0
+0.036607 -0.294462 0
+0.014979 -0.120486 0
-0.013052 +0.104989 0
-0.039959 +0.321428 0
-0.010264 +0.082565 0
-0.043638 +0.351022 0
-0.069632 +0.560115 0
-0.077138 +0.620486 0
+0.012117 -0.097467 0
+0.032056 -0.257859 0
+0.008387 -0.067464 0
+0.015072 -0.121235 0
+0.026131 -0.210194 0
+0.044831 -0.360612 0
+0.031805 -0.255838 0
+0.040061 -0.322250 0
+0.015558 -0.125145 0
+0.006897 -0.055476 0
+0.022397 -0.180158 0
+0.013778 -0.110827 0
-0.003412 +0.027449 0
-0.031069 +0.249913 0
-0.010239 +0.082359 0
-0.040185 +0.323245 0
-0.162501 +1.307138 0
-0.124529 +1.001700 0
-0.162963 +1.310855 0
-0.085604 +0.688587 0
-0.134289 +1.080205 0
-0.093624 +0.753105 0
-0.068784 +0.553294 0
-0.160196 +1.288595 0
-0.090154 +0.725192 0
-0.102339 +0.823203 0
-0.063727 +0.512616 0
-0.054023 +0.434553 0
-0.147320 +1.185025 0
-0.188461 +1.515959 0
-0.163965 +1.318920 0
-0.138837 +1.116788 0
-0.120084 +0.965945 0
-0.172610 +1.388458 0
-0.030468 +0.245078 0
-0.052095 +0.419043 0
-0.093158 +0.749349 0
-0.087321 +0.702400 0
-0.038843 +0.312445 0
-0.073177 +0.588626 0
-0.010374 +0.083443 0
-0.052471 +0.422070 0
-0.028686 +0.230749 0
-0.111782 +0.899164 0
-0.104917 +0.843941 0
-0.151735 +1.220536 0
-0.132348 +1.064591 0
-0.082775 +0.665830 0
-0.049367 +0.397104 0
-0.100330 +0.807046 0
-0.060689 +0.488174 0
-0.165621 +1.332237 0
-0.136376 +1.096992 0
-0.146441 +1.177953 0
-0.112355 +0.903769 0
-0.099077 +0.796968 0
-0.058672 +0.471949 0
-0.075319 +0.605855 0
-0.040195 +0.323321 0
-0.096149 +0.773410 0
-0.062185 +0.500210 0
-0.030054 +0.241754 0
-0.029290 +0.235609 0
-0.139572 +1.122701 0
-0.154603 +1.243613 0
-0.126549 +1.017950 0
-0.161675 +1.300494 0
-0.160141 +1.288154 0
-0.182188 +1.465502 0
-0.180957 +1.455600 0
-0.181812 +1.462472 0
-0.185841 +1.494885 0
-0.172608 +1.388441 0
-0.155782 +1.253092 0
-0.161001 +1.295078 0
-0.114411 +0.920309 0
-0.105632 +0.849696 0
-0.150063 +1.207090 0
-0.126964 +1.021288 0
-0.086077 +0.692397 0
-0.059788 +0.480928 0
-0.056175 +0.451869 0
-0.041619 +0.334777 0
-0.011068 +0.089033 0
-0.022071 +0.177537 0
-0.075344 +0.606062 0
-0.122142 +0.982493 0
-0.045812 +0.368506 0
-0.047920 +0.385463 0
-0.093750 +0.754111 0
-0.132689 +1.067336 0
-0.086119 +0.692731 0
-0.108642 +0.873906 0
-0.035774 +0.287765 0
-0.017113 +0.137657 0
-0.056525 +0.454684 0
-0.062335 +0.501417 0
-0.022542 +0.181322 0
-0.019386 +0.155941 0
-0.003717 +0.029899 0
-0.002910 +0.023411 0
