# vtk DataFile Version 2.0
MyTitle
ASCII
DATASET UNSTRUCTURED_GRID
POINTS 849 double
2.000000 0.000000 0.000000
3.000000 1.000000 0.000000
3.000000 2.000000 0.000000
2.000000 2.000000 0.000000
1.000000 2.000000 0.000000
1.000000 3.000000 0.000000
0.000000 2.000000 0.000000
0.500000 1.500000 0.000000
1.000000 1.000000 0.000000
2.000000 1.000000 0.000000
2.125000 0.125000 0.000000
2.250000 0.250000 0.000000
2.375000 0.375000 0.000000
2.500000 0.500000 0.000000
2.625000 0.625000 0.000000
2.750000 0.750000 0.000000
2.875000 0.875000 0.000000
2.062500 0.062500 0.000000
2.187500 0.187500 0.000000
2.312500 0.312500 0.000000
2.437500 0.437500 0.000000
2.562500 0.562500 0.000000
2.687500 0.687500 0.000000
2.812500 0.812500 0.000000
2.937500 0.937500 0.000000
3.000000 1.125000 0.000000
3.000000 1.250000 0.000000
3.000000 1.375000 0.000000
3.000000 1.500000 0.000000
3.000000 1.625000 0.000000
3.000000 1.750000 0.000000
3.000000 1.875000 0.000000
3.000000 1.062500 0.000000
3.000000 1.187500 0.000000
3.000000 1.312500 0.000000
3.000000 1.437500 0.000000
3.000000 1.562500 0.000000
3.000000 1.687500 0.000000
3.000000 1.812500 0.000000
3.000000 1.937500 0.000000
2.875000 2.000000 0.000000
2.750000 2.000000 0.000000
2.625000 2.000000 0.000000
2.500000 2.000000 0.000000
2.375000 2.000000 0.000000
2.250000 2.000000 0.000000
2.125000 2.000000 0.000000
2.937500 2.000000 0.000000
2.812500 2.000000 0.000000
2.687500 2.000000 0.000000
2.562500 2.000000 0.000000
2.437500 2.000000 0.000000
2.312500 2.000000 0.000000
2.187500 2.000000 0.000000
2.062500 2.000000 0.000000
1.875000 2.000000 0.000000
1.750000 2.000000 0.000000
1.625000 2.000000 0.000000
1.500000 2.000000 0.000000
1.375000 2.000000 0.000000
1.250000 2.000000 0.000000
1.125000 2.000000 0.000000
1.937500 2.000000 0.000000
1.812500 2.000000 0.000000
1.687500 2.000000 0.000000
1.562500 2.000000 0.000000
1.437500 2.000000 0.000000
1.312500 2.000000 0.000000
1.187500 2.000000 0.000000
1.062500 2.000000 0.000000
1.000000 2.125000 0.000000
1.000000 2.250000 0.000000
1.000000 2.375000 0.000000
1.000000 2.500000 0.000000
1.000000 2.625000 0.000000
1.000000 2.750000 0.000000
1.000000 2.875000 0.000000
1.000000 2.062500 0.000000
1.000000 2.187500 0.000000
1.000000 2.312500 0.000000
1.000000 2.437500 0.000000
1.000000 2.562500 0.000000
1.000000 2.687500 0.000000
1.000000 2.812500 0.000000
1.000000 2.937500 0.000000
0.875000 2.875000 0.000000
0.750000 2.750000 0.000000
0.625000 2.625000 0.000000
0.500000 2.500000 0.000000
0.375000 2.375000 0.000000
0.250000 2.250000 0.000000
0.125000 2.125000 0.000000
0.937500 2.937500 0.000000
0.812500 2.812500 0.000000
0.687500 2.687500 0.000000
0.562500 2.562500 0.000000
0.437500 2.437500 0.000000
0.312500 2.312500 0.000000
0.187500 2.187500 0.000000
0.062500 2.062500 0.000000
0.062500 1.937500 0.000000
0.125000 1.875000 0.000000
0.187500 1.812500 0.000000
0.250000 1.750000 0.000000
0.312500 1.687500 0.000000
0.375000 1.625000 0.000000
0.437500 1.562500 0.000000
0.031250 1.968750 0.000000
0.093750 1.906250 0.000000
0.156250 1.843750 0.000000
0.218750 1.781250 0.000000
0.281250 1.718750 0.000000
0.343750 1.656250 0.000000
0.406250 1.593750 0.000000
0.468750 1.531250 0.000000
0.562500 1.437500 0.000000
0.625000 1.375000 0.000000
0.687500 1.312500 0.000000
0.750000 1.250000 0.000000
0.812500 1.187500 0.000000
0.875000 1.125000 0.000000
0.937500 1.062500 0.000000
0.531250 1.468750 0.000000
0.593750 1.406250 0.000000
0.656250 1.343750 0.000000
0.718750 1.281250 0.000000
0.781250 1.218750 0.000000
0.843750 1.156250 0.000000
0.906250 1.093750 0.000000
0.968750 1.031250 0.000000
1.125000 1.000000 0.000000
1.250000 1.000000 0.000000
1.375000 1.000000 0.000000
1.500000 1.000000 0.000000
1.625000 1.000000 0.000000
1.750000 1.000000 0.000000
1.875000 1.000000 0.000000
1.062500 1.000000 0.000000
1.187500 1.000000 0.000000
1.312500 1.000000 0.000000
1.437500 1.000000 0.000000
1.562500 1.000000 0.000000
1.687500 1.000000 0.000000
1.812500 1.000000 0.000000
1.937500 1.000000 0.000000
2.000000 0.875000 0.000000
2.000000 0.750000 0.000000
2.000000 0.625000 0.000000
2.000000 0.500000 0.000000
2.000000 0.375000 0.000000
2.000000 0.250000 0.000000
2.000000 0.125000 0.000000
2.000000 0.937500 0.000000
2.000000 0.812500 0.000000
2.000000 0.687500 0.000000
2.000000 0.562500 0.000000
2.000000 0.437500 0.000000
2.000000 0.312500 0.000000
2.000000 0.187500 0.000000
2.000000 0.062500 0.000000
2.125000 1.125000 0.000000
2.250000 1.250000 0.000000
2.375000 1.375000 0.000000
2.500000 1.500000 0.000000
2.625000 1.625000 0.000000
2.750000 1.750000 0.000000
2.875000 1.875000 0.000000
2.062500 1.062500 0.000000
2.187500 1.187500 0.000000
2.312500 1.312500 0.000000
2.437500 1.437500 0.000000
2.562500 1.562500 0.000000
2.687500 1.687500 0.000000
2.812500 1.812500 0.000000
2.937500 1.937500 0.000000
1.125000 1.125000 0.000000
1.250000 1.250000 0.000000
1.375000 1.375000 0.000000
1.500000 1.500000 0.000000
1.625000 1.625000 0.000000
1.750000 1.750000 0.000000
1.875000 1.875000 0.000000
1.062500 1.062500 0.000000
1.187500 1.187500 0.000000
1.312500 1.312500 0.000000
1.437500 1.437500 0.000000
1.562500 1.562500 0.000000
1.687500 1.687500 0.000000
1.812500 1.812500 0.000000
1.937500 1.937500 0.000000
0.562500 1.562500 0.000000
0.625000 1.625000 0.000000
0.687500 1.687500 0.000000
0.750000 1.750000 0.000000
0.812500 1.812500 0.000000
0.875000 1.875000 0.000000
0.937500 1.937500 0.000000
0.531250 1.531250 0.000000
0.593750 1.593750 0.000000
0.656250 1.656250 0.000000
0.718750 1.718750 0.000000
0.781250 1.781250 0.000000
0.843750 1.843750 0.000000
0.906250 1.906250 0.000000
0.968750 1.968750 0.000000
2.250000 1.000000 0.000000
2.500000 1.250000 0.000000
2.750000 1.500000 0.000000
2.250000 0.750000 0.000000
2.500000 1.000000 0.000000
2.750000 1.250000 0.000000
2.250000 0.500000 0.000000
2.500000 0.750000 0.000000
2.750000 1.000000 0.000000
2.125000 0.875000 0.000000
2.250000 1.125000 0.000000
2.125000 1.000000 0.000000
2.375000 1.125000 0.000000
2.500000 1.375000 0.000000
2.375000 1.250000 0.000000
2.625000 1.375000 0.000000
2.750000 1.625000 0.000000
2.625000 1.500000 0.000000
2.875000 1.625000 0.000000
2.875000 1.750000 0.000000
2.125000 0.625000 0.000000
2.250000 0.875000 0.000000
2.125000 0.750000 0.000000
2.375000 0.875000 0.000000
2.500000 1.125000 0.000000
2.375000 1.000000 0.000000
2.625000 1.125000 0.000000
2.750000 1.375000 0.000000
2.625000 1.250000 0.000000
2.875000 1.375000 0.000000
2.875000 1.500000 0.000000
2.125000 0.375000 0.000000
2.250000 0.625000 0.000000
2.125000 0.500000 0.000000
2.375000 0.625000 0.000000
2.500000 0.875000 0.000000
2.375000 0.750000 0.000000
2.625000 0.875000 0.000000
2.750000 1.125000 0.000000
2.625000 1.000000 0.000000
2.875000 1.125000 0.000000
2.875000 1.250000 0.000000
2.250000 0.375000 0.000000
2.125000 0.250000 0.000000
2.500000 0.625000 0.000000
2.375000 0.500000 0.000000
2.750000 0.875000 0.000000
2.625000 0.750000 0.000000
2.875000 1.000000 0.000000
2.062500 0.937500 0.000000
2.125000 1.062500 0.000000
2.062500 0.812500 0.000000
2.125000 0.937500 0.000000
2.187500 0.937500 0.000000
2.250000 1.062500 0.000000
2.187500 1.062500 0.000000
2.250000 1.187500 0.000000
2.312500 1.187500 0.000000
2.375000 1.312500 0.000000
2.312500 1.062500 0.000000
2.375000 1.187500 0.000000
2.437500 1.187500 0.000000
2.500000 1.312500 0.000000
2.437500 1.312500 0.000000
2.500000 1.437500 0.000000
2.562500 1.437500 0.000000
2.625000 1.562500 0.000000
2.562500 1.312500 0.000000
2.625000 1.437500 0.000000
2.687500 1.437500 0.000000
2.750000 1.562500 0.000000
2.687500 1.562500 0.000000
2.750000 1.687500 0.000000
2.812500 1.687500 0.000000
2.875000 1.812500 0.000000
2.812500 1.562500 0.000000
2.875000 1.687500 0.000000
2.937500 1.687500 0.000000
2.937500 1.812500 0.000000
2.062500 0.687500 0.000000
2.125000 0.812500 0.000000
2.062500 0.562500 0.000000
2.125000 0.687500 0.000000
2.187500 0.687500 0.000000
2.250000 0.812500 0.000000
2.187500 0.812500 0.000000
2.250000 0.937500 0.000000
2.312500 0.937500 0.000000
2.375000 1.062500 0.000000
2.312500 0.812500 0.000000
2.375000 0.937500 0.000000
2.437500 0.937500 0.000000
2.500000 1.062500 0.000000
2.437500 1.062500 0.000000
2.500000 1.187500 0.000000
2.562500 1.187500 0.000000
2.625000 1.312500 0.000000
2.562500 1.062500 0.000000
2.625000 1.187500 0.000000
2.687500 1.187500 0.000000
2.750000 1.312500 0.000000
2.687500 1.312500 0.000000
2.750000 1.437500 0.000000
2.812500 1.437500 0.000000
2.875000 1.562500 0.000000
2.812500 1.312500 0.000000
2.875000 1.437500 0.000000
2.937500 1.437500 0.000000
2.937500 1.562500 0.000000
2.062500 0.437500 0.000000
2.125000 0.562500 0.000000
2.062500 0.312500 0.000000
2.125000 0.437500 0.000000
2.187500 0.437500 0.000000
2.250000 0.562500 0.000000
2.187500 0.562500 0.000000
2.250000 0.687500 0.000000
2.312500 0.687500 0.000000
2.375000 0.812500 0.000000
2.312500 0.562500 0.000000
2.375000 0.687500 0.000000
2.437500 0.687500 0.000000
2.500000 0.812500 0.000000
2.437500 0.812500 0.000000
2.500000 0.937500 0.000000
2.562500 0.937500 0.000000
2.625000 1.062500 0.000000
2.562500 0.812500 0.000000
2.625000 0.937500 0.000000
2.687500 0.937500 0.000000
2.750000 1.062500 0.000000
2.687500 1.062500 0.000000
2.750000 1.187500 0.000000
2.812500 1.187500 0.000000
2.875000 1.312500 0.000000
2.812500 1.062500 0.000000
2.875000 1.187500 0.000000
2.937500 1.187500 0.000000
2.937500 1.312500 0.000000
2.062500 0.187500 0.000000
2.125000 0.312500 0.000000
2.125000 0.187500 0.000000
2.250000 0.312500 0.000000
2.187500 0.312500 0.000000
2.250000 0.437500 0.000000
2.312500 0.437500 0.000000
2.375000 0.562500 0.000000
2.375000 0.437500 0.000000
2.500000 0.562500 0.000000
2.437500 0.562500 0.000000
2.500000 0.687500 0.000000
2.562500 0.687500 0.000000
2.625000 0.812500 0.000000
2.625000 0.687500 0.000000
2.750000 0.812500 0.000000
2.687500 0.812500 0.000000
2.750000 0.937500 0.000000
2.812500 0.937500 0.000000
2.875000 1.062500 0.000000
2.875000 0.937500 0.000000
2.937500 1.062500 0.000000
1.500000 1.250000 0.000000
[...]
POINT_DATA 849
VECTORS sol double
+0.000000 +0.000000 0
+0.000000 +0.000000 0
+0.000000 +0.000000 0
+0.000000 +0.000000 0
+0.000000 +0.000000 0
+0.000000 +0.000000 0
+0.000000 +0.000000 0
+0.000000 +0.000000 0
+0.000000 +0.000000 0
+0.000000 +0.000000 0
+0.000000 +0.000000 0
+0.000000 +0.000000 0
+0.000000 +0.000000 0
+0.000000 +0.000000 0
+0.000000 +0.000000 0
+0.000000 +0.000000 0
+0.000000 +0.000000 0
+0.000000 +0.000000 0
+0.000000 +0.000000 0
+0.000000 +0.000000 0
+0.000000 +0.000000 0
+0.000000 +0.000000 0
+0.000000 +0.000000 0
+0.000000 +0.000000 0
+0.000000 +0.000000 0
+0.000000 +0.000000 0
+0.000000 +0.000000 0
+0.000000 +0.000000 0
+0.000000 +0.000000 0
+0.000000 +0.000000 0
+0.000000 +0.000000 0
+0.000000 +0.000000 0
+0.000000 +0.000000 0
+0.000000 +0.000000 0
+0.000000 +0.000000 0
+0.000000 +0.000000 0
+0.000000 +0.000000 0
+0.000000 +0.000000 0
+0.000000 +0.000000 0
+0.000000 +0.000000 0
+0.000000 +0.000000 0
+0.000000 +0.000000 0
+0.000000 +0.000000 0
+0.000000 +0.000000 0
+0.000000 +0.000000 0
+0.000000 +0.000000 0
+0.000000 +0.000000 0
+0.000000 +0.000000 0
+0.000000 +0.000000 0
+0.000000 +0.000000 0
+0.000000 +0.000000 0
+0.000000 +0.000000 0
+0.000000 +0.000000 0
+0.000000 +0.000000 0
+0.000000 +0.000000 0
+0.000000 +0.000000 0
+0.000000 +0.000000 0
+0.000000 +0.000000 0
+0.000000 +0.000000 0
+0.000000 +0.000000 0
+0.000000 +0.000000 0
+0.000000 +0.000000 0
+0.000000 +0.000000 0
+0.000000 +0.000000 0
+0.000000 +0.000000 0
+0.000000 +0.000000 0
+0.000000 +0.000000 0
+0.000000 +0.000000 0
+0.000000 +0.000000 0
+0.000000 +0.000000 0
+0.000000 +0.000000 0
+0.000000 +0.000000 0
+0.000000 +0.000000 0
+0.000000 +0.000000 0
+0.000000 +0.000000 0
+0.000000 +0.000000 0
+0.000000 +0.000000 0
+0.000000 +0.000000 0
+0.000000 +0.000000 0
+0.000000 +0.000000 0
+0.000000 +0.000000 0
+0.000000 +0.000000 0
+0.000000 +0.000000 0
+0.000000 +0.000000 0
+0.000000 +0.000000 0
+0.000000 +0.000000 0
+0.000000 +0.000000 0
+0.000000 +0.000000 0
+0.000000 +0.000000 0
+0.000000 +0.000000 0
+0.000000 +0.000000 0
+0.000000 +0.000000 0
+0.000000 +0.000000 0
+0.000000 +0.000000 0
+0.000000 +0.000000 0
+0.000000 +0.000000 0
+0.000000 +0.000000 0
+0.000000 +0.000000 0
+0.000000 +0.000000 0
+0.000000 +0.000000 0
+0.000000 +0.000000 0
+0.000000 +0.000000 0
+0.000000 +0.000000 0
+0.000000 +0.000000 0
+0.000000 +0.000000 0
+0.000000 +0.000000 0
+0.000000 +0.000000 0
+0.000000 +0.000000 0
+0.000000 +0.000000 0
+0.000000 +0.000000 0
+0.000000 +0.000000 0
+0.000000 +0.000000 0
+0.000000 +0.000000 0
+0.000000 +0.000000 0
+0.000000 +0.000000 0
+0.000000 +0.000000 0
+0.000000 +0.000000 0
+0.000000 +0.000000 0
+0.000000 +0.000000 0
+0.000000 +0.000000 0
+0.000000 +0.000000 0
+0.000000 +0.000000 0
+0.000000 +0.000000 0
+0.000000 +0.000000 0
+0.000000 +0.000000 0
+0.000000 +0.000000 0
+0.000000 +0.000000 0
+0.000000 +0.000000 0
+0.000000 +0.000000 0
+0.000000 +0.000000 0
+0.000000 +0.000000 0
+0.000000 +0.000000 0
+0.000000 +0.000000 0
+0.000000 +0.000000 0
+0.000000 +0.000000 0
+0.000000 +0.000000 0
+0.000000 +0.000000 0
+0.000000 +0.000000 0
+0.000000 +0.000000 0
+0.000000 +0.000000 0
+0.000000 +0.000000 0
+0.000000 +0.000000 0
+0.000000 +0.000000 0
+0.000000 +0.000000 0
+0.000000 +0.000000 0
+0.000000 +0.000000 0
+0.000000 +0.000000 0
+0.000000 +0.000000 0
+0.000000 +0.000000 0
+0.000000 +0.000000 0
+0.000000 +0.000000 0
+0.000000 +0.000000 0
+0.000000 +0.000000 0
+0.000000 +0.000000 0
+0.000000 +0.000000 0
+0.000000 +0.000000 0
+0.000000 +0.000000 0
+0.000000 +0.000000 0
+0.000000 +0.000000 0
+0.000000 +0.000000 0
+0.240963 -0.677231 0
+0.261347 -0.734522 0
+0.095185 -0.267520 0
-0.133983 +0.376563 0
-0.258485 +0.726477 0
-0.208932 +0.587207 0
-0.071264 +0.200289 0
+0.144893 -0.407226 0
+0.279641 -0.785936 0
+0.197040 -0.553787 0
-0.021552 +0.060572 0
-0.217002 +0.609890 0
-0.254066 +0.714057 0
-0.142293 +0.399918 0
-0.019631 +0.055173 0
+0.029701 -0.083474 0
-0.058155 +0.163445 0
-0.244518 +0.687222 0
-0.370650 +1.041721 0
-0.320880 +0.901839 0
-0.141297 +0.397118 0
+0.005146 -0.014464 0
+0.022148 -0.062246 0
+0.004393 -0.012346 0
-0.148180 +0.416464 0
-0.325807 +0.915687 0
-0.369169 +1.037557 0
-0.238152 +0.669331 0
-0.053288 +0.149768 0
+0.023394 -0.065748 0
+0.098998 -0.278236 0
+0.179023 -0.503149 0
+0.225743 -0.634455 0
+0.232837 -0.654394 0
+0.203263 -0.571274 0
+0.147461 -0.414442 0
+0.080255 -0.225559 0
+0.050749 -0.142632 0
+0.142453 -0.400367 0
+0.207178 -0.582277 0
+0.234295 -0.658492 0
+0.222161 -0.624388 0
+0.177735 -0.499528 0
+0.115553 -0.324763 0
+0.039776 -0.111791 0
+0.147135 -0.413526 0
-0.140946 +0.396133 0
-0.339271 +0.953529 0
+0.072049 -0.202496 0
-0.080782 +0.227038 0
-0.330019 +0.927526 0
+0.029087 -0.081750 0
-0.004132 +0.011613 0
-0.178065 +0.500454 0
+0.086151 -0.242129 0
+0.206051 -0.579111 0
+0.148744 -0.418048 0
+0.064202 -0.180442 0
-0.145252 +0.408234 0
+0.081742 -0.229737 0
-0.321874 +0.904635 0
-0.289024 +0.812309 0
-0.305870 +0.859653 0
-0.187159 +0.526014 0
-0.136290 +0.383046 0
+0.036495 -0.102571 0
+0.102177 -0.287172 0
+0.055668 -0.156457 0
+0.045890 -0.128976 0
-0.118368 +0.332676 0
+0.051280 -0.144124 0
-0.250589 +0.704286 0
-0.354052 +0.995072 0
-0.302886 +0.851266 0
-0.227814 +0.640275 0
-0.219138 +0.615892 0
+0.010442 -0.029347 0
+0.049503 -0.139129 0
+0.021869 -0.061465 0
+0.034383 -0.096635 0
-0.037854 +0.106390 0
+0.042811 -0.120323 0
-0.091846 +0.258135 0
-0.268414 +0.754383 0
-0.174154 +0.489465 0
-0.167602 +0.471050 0
-0.210939 +0.592849 0
+0.011420 -0.032095 0
+0.003007 -0.008451 0
+0.008693 -0.024432 0
+0.018333 -0.051525 0
-0.078590 +0.220879 0
-0.027747 +0.077984 0
-0.092945 +0.261223 0
+0.065351 -0.183671 0
+0.188258 -0.529103 0
+0.038860 -0.109216 0
+0.111547 -0.313506 0
+0.129493 -0.363944 0
+0.176315 -0.495537 0
+0.198952 -0.559158 0
+0.237379 -0.667159 0
+0.165352 -0.464727 0
+0.089069 -0.250332 0
+0.126142 -0.354524 0
+0.072980 -0.205113 0
-0.030550 +0.085862 0
-0.145321 +0.408429 0
-0.029373 +0.082554 0
-0.141422 +0.397470 0
-0.243873 +0.685411 0
-0.285942 +0.803647 0
-0.245057 +0.688737 0
-0.318294 +0.894571 0
-0.355300 +0.998579 0
-0.318415 +0.894913 0
-0.320765 +0.901516 0
-0.252244 +0.708937 0
-0.221022 +0.621187 0
-0.104993 +0.295086 0
-0.278264 +0.782068 0
-0.163756 +0.460239 0
-0.087089 +0.244765 0
-0.055997 +0.157380 0
+0.025125 -0.070613 0
+0.068551 -0.192664 0
+0.015841 -0.044522 0
+0.045255 -0.127190 0
+0.057717 -0.162215 0
+0.085495 -0.240287 0
+0.085172 -0.239377 0
+0.122250 -0.343587 0
+0.093022 -0.261441 0
+0.057068 -0.160392 0
+0.070668 -0.198615 0
+0.047963 -0.134802 0
-0.005888 +0.016549 0
-0.100858 +0.283463 0
-0.022601 +0.063521 0
-0.131780 +0.370370 0
-0.218719 +0.614715 0
-0.316962 +0.890830 0
-0.167973 +0.472092 0
-0.280645 +0.788759 0
-0.309987 +0.871224 0
-0.347178 +0.975751 0
-0.352066 +0.989489 0
-0.351611 +0.988210 0
-0.306667 +0.861894 0
-0.205868 +0.578597 0
-0.301958 +0.848660 0
-0.226669 +0.637057 0
-0.120180 +0.337769 0
-0.109324 +0.307257 0
+0.008756 -0.024609 0
+0.028741 -0.080778 0
+0.003654 -0.010271 0
+0.015661 -0.044015 0
+0.019635 -0.055184 0
+0.039023 -0.109675 0
+0.036981 -0.103936 0
+0.060244 -0.169318 0
+0.053525 -0.150433 0
+0.044630 -0.125432 0
+0.035362 -0.099385 0
+0.039578 -0.111235 0
+0.021995 -0.061819 0
-0.018732 +0.052647 0
+0.012519 -0.035186 0
-0.058923 +0.165605 0
-0.103589 +0.291139 0
-0.214421 +0.602636 0
-0.043484 +0.122212 0
-0.132060 +0.371159 0
-0.140659 +0.395326 0
-0.226216 +0.635784 0
-0.234588 +0.659314 0
-0.303887 +0.854082 0
-0.262811 +0.738637 0
-0.222811 +0.626215 0
-0.190796 +0.536238 0
-0.193007 +0.542451 0
-0.101424 +0.285053 0
-0.117846 +0.331210 0
+0.000842 -0.002367 0
+0.006126 -0.017216 0
+0.001008 -0.002833 0
+0.004616 -0.012975 0
+0.006687 -0.018794 0
+0.019592 -0.055065 0
+0.015804 -0.044416 0
+0.027033 -0.075976 0
+0.008724 -0.024520 0
+0.006487 -0.018231 0
+0.016489 -0.046343 0
+0.005363 -0.015074 0
-0.006199 +0.017423 0
-0.055854 +0.156978 0
-0.008713 +0.024489 0
-0.033377 +0.093805 0
-0.053160 +0.149409 0
-0.127317 +0.357828 0
-0.094759 +0.266323 0
-0.134969 +0.379333 0
-0.050019 +0.140580 0
-0.068795 +0.193350 0
-0.273888 +0.769769 0
-0.181262 +0.509442 0
+0.157410 -0.442406 0
-0.108344 +0.304504 0
+0.262718 -0.738375 0
+0.189291 -0.532005 0
+0.243784 -0.685160 0
+0.291821 -0.820168 0
-0.076393 +0.214704 0
-0.114187 +0.320924 0
-0.200764 +0.564252 0
-0.041448 +0.116491 0
-0.317509 +0.892365 0
-0.345823 +0.971944 0
-0.350692 +0.985628 0
+0.032995 -0.092732 0
+0.015734 -0.044221 0
-0.177361 +0.498477 0
+0.118007 -0.331662 0
+0.081328 -0.228574 0
-0.129258 +0.363282 0
-0.240915 +0.677097 0
-0.150418 +0.422752 0
+0.072770 -0.204520 0
+0.054490 -0.153146 0
-0.155154 +0.436064 0
+0.306738 -0.862093 0
+0.224087 -0.629802 0
+0.220775 -0.620493 0
+0.038881 -0.109276 0
+0.100753 -0.283169 0
+0.054012 -0.151803 0
+0.076927 -0.216205 0
-0.053507 +0.150381 0
+0.361190 -1.015132 0
+0.355142 -0.998135 0
+0.273483 -0.768630 0
+0.092541 -0.260088 0
+0.071011 -0.199577 0
+0.255800 -0.718930 0
-0.097219 +0.273235 0
-0.038882 +0.109278 0
+0.320377 -0.900427 0
+0.168266 -0.472916 0
+0.100835 -0.283398 0
+0.293537 -0.824993 0
-0.186282 +0.523549 0
-0.108900 +0.306065 0
-0.110140 +0.309551 0
-0.002965 +0.008333 0
-0.001706 +0.004796 0
-0.041652 +0.117063 0
-0.079469 +0.223349 0
-0.198926 +0.559087 0
-0.249476 +0.701157 0
-0.111550 +0.313515 0
-0.134204 +0.377183 0
-0.287982 +0.809379 0
-0.313758 +0.881824 0
-0.318499 +0.895148 0
-0.353046 +0.992243 0
-0.269217 +0.756641 0
-0.278418 +0.782500 0
-0.372792 +1.047740 0
-0.378735 +1.064443 0
-0.275988 +0.775670 0
-0.262738 +0.738430 0
-0.072949 +0.205025 0
-0.074978 +0.210726 0
+0.115082 -0.323439 0
+0.093462 -0.262677 0
-0.072512 +0.203796 0
-0.064850 +0.182263 0
+0.070117 -0.197064 0
+0.047278 -0.132876 0
+0.156499 -0.439845 0
+0.106545 -0.299448 0
+0.058756 -0.165134 0
+0.053649 -0.150783 0
-0.071007 +0.199566 0
-0.138390 +0.388948 0
-0.075129 +0.211150 0
-0.147702 +0.415118 0
-0.143338 +0.402854 0
-0.185767 +0.522101 0
-0.213884 +0.601125 0
-0.272003 +0.764470 0
-0.221401 +0.622251 0
-0.250296 +0.703462 0
-0.030920 +0.086902 0
-0.044274 +0.124432 0
+0.178548 -0.501813 0
+0.168760 -0.474304 0
-0.056416 +0.158558 0
-0.066457 +0.186779 0
+0.153785 -0.432217 0
+0.135977 -0.382166 0
+0.308448 -0.866899 0
+0.280783 -0.789147 0
+0.262752 -0.738471 0
+0.219676 -0.617404 0
+0.244827 -0.688091 0
+0.203487 -0.571906 0
+0.170167 -0.478258 0
+0.116053 -0.326170 0
+0.107511 -0.302163 0
+0.073368 -0.206201 0
-0.000184 +0.000519 0
+0.037388 -0.105080 0
-0.049063 +0.137893 0
-0.097904 +0.275161 0
+0.000380 -0.001067 0
-0.002957 +0.008311 0
+0.145066 -0.407712 0
+0.167117 -0.469685 0
-0.008627 +0.024245 0
-0.018887 +0.053083 0
+0.179262 -0.503821 0
+0.182732 -0.513572 0
+0.322918 -0.907568 0
+0.336319 -0.945232 0
+0.350564 -0.985267 0
+0.343594 -0.965678 0
+0.337268 -0.947899 0
+0.328196 -0.922401 0
+0.325698 -0.915381 0
+0.298812 -0.839817 0
+0.199474 -0.560627 0
+0.184520 -0.518599 0
-0.006023 +0.016929 0
-0.003845 +0.010806 0
+0.163773 -0.460287 0
+0.137700 -0.387009 0
-0.001687 +0.004741 0
-0.001090 +0.003064 0
-0.107572 +0.302333 0
-0.073229 +0.205811 0
-0.055771 +0.156744 0
-0.036729 +0.103229 0
+0.061078 -0.171660 0
+0.110905 -0.311701 0
+0.209928 -0.590007 0
+0.311071 -0.874273 0
+0.261274 -0.734315 0
+0.298505 -0.838954 0
+0.333409 -0.937053 0
+0.347658 -0.977099 0
+0.206449 -0.580231 0
-0.017981 +0.050535 0
+0.210467 -0.591522 0
+0.208357 -0.585593 0
-0.013370 +0.037578 0
-0.009573 +0.026906 0
-0.196140 +0.551256 0
-0.210741 +0.592293 0
-0.169803 +0.477235 0
-0.140584 +0.395115 0
-0.162381 +0.456376 0
-0.110575 +0.310773 0
-0.096183 +0.270325 0
-0.048723 +0.136936 0
+0.357390 -1.004451 0
+0.393553 -1.106090 0
+0.163312 -0.458991 0
+0.368487 -1.035640 0
+0.242049 -0.680283 0
-0.049307 +0.138579 0
+0.180933 -0.508515 0
-0.122784 +0.345086 0
-0.232787 +0.654254 0
+0.204987 -0.576119 0
+0.280460 -0.788240 0
+0.157110 -0.441560 0
+0.422340 -1.186997 0
+0.345052 -0.969776 0
+0.345854 -0.972029 0
+0.293366 -0.824512 0
+0.192344 -0.540588 0
+0.286989 -0.806590 0
+0.051670 -0.145219 0
+0.086380 -0.242772 0
+0.231036 -0.649333 0
+0.390288 -1.096914 0
+0.231895 -0.651746 0
+0.365173 -1.026326 0
+0.358615 -1.007895 0
+0.431602 -1.213026 0
+0.074288 -0.208787 0
+0.073364 -0.206191 0
+0.216685 -0.608997 0
-0.072216 +0.202964 0
-0.008910 +0.025041 0
+0.150037 -0.421682 0
+0.293814 -0.825772 0
+0.201736 -0.566984 0
+0.062481 -0.175603 0
+0.067903 -0.190842 0
+0.233142 -0.655250 0
-0.246477 +0.692728 0
-0.164896 +0.463444 0
-0.096295 +0.270639 0
-0.113589 +0.319245 0
-0.113282 +0.318381 0
+0.054249 -0.152467 0
+0.087573 -0.246126 0
-0.282624 +0.794321 0
-0.109491 +0.307727 0
-0.225800 +0.634616 0
-0.330716 +0.929485 0
-0.069352 +0.194915 0
+0.080756 -0.226967 0
+0.128533 -0.361245 0
+0.105997 -0.297908 0
+0.183030 -0.514410 0
+0.290516 -0.816503 0
+0.323338 -0.908750 0
+0.224768 -0.631714 0
+0.231311 -0.650105 0
+0.321259 -0.902905 0
+0.289312 -0.813118 0
+0.401926 -1.129623 0
+0.391345 -1.099882 0
+0.418931 -1.177414 0
+0.379083 -1.065420 0
+0.353518 -0.993569 0
+0.294987 -0.829067 0
+0.322108 -0.905292 0
+0.253428 -0.712265 0
+0.350251 -0.984387 0
+0.300959 -0.845853 0
+0.229231 -0.644260 0
+0.186717 -0.524772 0
+0.242897 -0.682667 0
+0.179918 -0.505664 0
+0.139429 -0.391869 0
+0.089803 -0.252395 0
+0.102165 -0.287136 0
+0.073383 -0.206244 0
+0.016183 -0.045482 0
+0.038934 -0.109426 0
+0.120933 -0.339886 0
+0.221604 -0.622822 0
+0.122000 -0.342884 0
+0.235156 -0.660910 0
+0.315977 -0.888059 0
+0.386505 -1.086282 0
+0.324010 -0.910638 0
+0.380302 -1.068848 0
+0.426609 -1.198993 0
+0.436430 -1.226596 0
+0.384819 -1.081542 0
+0.407831 -1.146218 0
+0.314900 -0.885035 0
+0.309729 -0.870501 0
+0.407496 -1.145275 0
+0.387127 -1.088029 0
+0.292398 -0.821791 0
+0.265041 -0.744905 0
+0.158054 -0.444213 0
+0.151842 -0.426754 0
+0.002187 -0.006147 0
+0.013694 -0.038488 0
+0.140919 -0.396055 0
+0.124587 -0.350155 0
+0.021612 -0.060741 0
+0.023034 -0.064737 0
-0.074773 +0.210151 0
-0.042242 +0.118721 0
-0.045388 +0.127564 0
-0.016259 +0.045696 0
+0.108649 -0.305360 0
+0.219763 -0.617649 0
+0.083703 -0.235250 0
+0.178131 -0.500640 0
+0.185151 -0.520371 0
+0.240947 -0.677186 0
+0.266386 -0.748684 0
+0.337254 -0.947860 0
+0.281671 -0.791643 0
+0.306225 -0.860653 0
+0.137500 -0.386447 0
+0.150660 -0.423432 0
-0.029882 +0.083984 0
-0.028250 +0.079398 0
+0.157714 -0.443258 0
+0.160081 -0.449910 0
-0.021289 +0.059833 0
-0.010449 +0.029368 0
-0.199323 +0.560203 0
-0.177235 +0.498123 0
-0.257553 +0.723859 0
-0.207370 +0.582817 0
-0.146239 +0.411009 0
-0.110957 +0.311848 0
-0.152344 +0.428166 0
-0.097402 +0.273750 0
-0.180542 +0.507417 0
-0.119437 +0.335679 0
-0.048207 +0.135488 0
-0.058414 +0.164174 0
+0.052769 -0.148308 0
+0.119331 -0.335383 0
+0.057200 -0.160763 0
-0.005367 +0.015084 0
+0.090347 -0.253924 0
+0.117686 -0.330760 0
-0.016844 +0.047340 0
-0.025640 +0.072062 0
-0.183548 +0.515865 0
-0.337725 +0.949183 0
-0.204572 +0.574955 0
-0.209469 +0.588718 0
-0.327438 +0.920272 0
-0.299503 +0.841759 0
-0.338735 +0.952022 0
-0.192582 +0.541256 0
-0.293562 +0.825062 0
-0.239884 +0.674200 0
-0.144732 +0.406771 0
-0.096439 +0.271045 0
-0.033832 +0.095086 0
-0.017058 +0.047941 0
-0.214711 +0.603450 0
-0.280075 +0.787157 0
-0.129034 +0.362653 0
-0.212922 +0.598421 0
-0.344179 +0.967322 0
-0.238314 +0.669786 0
-0.022706 +0.063814 0
-0.108389 +0.304630 0
-0.153157 +0.430452 0
-0.115660 +0.325066 0
-0.127386 +0.358020 0
-0.069933 +0.196547 0
-0.276166 +0.776169 0
-0.150916 +0.424154 0
-0.158025 +0.444133 0
-0.222803 +0.626193 0
-0.054245 +0.152456 0
-0.109172 +0.306831 0
-0.043249 +0.121553 0
-0.013717 +0.038552 0
-0.108730 +0.305588 0
-0.244238 +0.686435 0
-0.128648 +0.361567 0
-0.299150 +0.840769 0
-0.351529 +0.987981 0
-0.326686 +0.918157 0
-0.325257 +0.914141 0
-0.199456 +0.560575 0
-0.304537 +0.855909 0
-0.112223 +0.315404 0
-0.080870 +0.227288 0
-0.004490 +0.012619 0
-0.131912 +0.370741 0
-0.063238 +0.177731 0
-0.059924 +0.168419 0
-0.256942 +0.722140 0
-0.202103 +0.568014 0
-0.148135 +0.416338 0
-0.225466 +0.633676 0
-0.271488 +0.763022 0
-0.102223 +0.287300 0
-0.122384 +0.343963 0
+0.088825 -0.249646 0
+0.053605 -0.150658 0
+0.068208 -0.191701 0
+0.093942 -0.264027 0
-0.024240 +0.068128 0
+0.022567 -0.063426 0
-0.040492 +0.113803 0
-0.035744 +0.100460 0
-0.037230 +0.104637 0
-0.058829 +0.165341 0
-0.096630 +0.271579 0
-0.168597 +0.473846 0
-0.177648 +0.499285 0
-0.101217 +0.284472 0
-0.067251 +0.189009 0
-0.147127 +0.413504 0
-0.081922 +0.230245 0
-0.251744 +0.707533 0
-0.224357 +0.630562 0
-0.286306 +0.804668 0
-0.220831 +0.620649 0
-0.159613 +0.448595 0
-0.075637 +0.212580 0
-0.133440 +0.375036 0
-0.051596 +0.145011 0
-0.258309 +0.725984 0
-0.167685 +0.471281 0
-0.177800 +0.499710 0
-0.090257 +0.253669 0
-0.081378 +0.228715 0
-0.023100 +0.064924 0
-0.030645 +0.086128 0
-0.004820 +0.013548 0
-0.082191 +0.231001 0
-0.026589 +0.074729 0
-0.015286 +0.042962 0
-0.003801 +0.010684 0
-0.065060 +0.182853 0
-0.126517 +0.355580 0
-0.054535 +0.153271 0
-0.122533 +0.344382 0
-0.162004 +0.455315 0
-0.235871 +0.662920 0
-0.189228 +0.531829 0
-0.237379 +0.667158 0
-0.291305 +0.818720 0
-0.311162 +0.874529 0
-0.259657 +0.729771 0
-0.322704 +0.906967 0
-0.328569 +0.923451 0
-0.358436 +1.007393 0
-0.347841 +0.977614 0
-0.324938 +0.913247 0
-0.337082 +0.947376 0
-0.269821 +0.758337 0
-0.343779 +0.966197 0
-0.323933 +0.910421 0
-0.289361 +0.813254 0
-0.224358 +0.630564 0
-0.257035 +0.722403 0
-0.166465 +0.467852 0
-0.138248 +0.388548 0
-0.061590 +0.173101 0
-0.177004 +0.497473 0
-0.098113 +0.275749 0
-0.050732 +0.142582 0
-0.033042 +0.092866 0
-0.031148 +0.087543 0
-0.088495 +0.248717 0
-0.001261 +0.003545 0
-0.034628 +0.097324 0
-0.011231 +0.031564 0
-0.079211 +0.222624 0
-0.096831 +0.272146 0
-0.177484 +0.498822 0
-0.167591 +0.471017 0
-0.258153 +0.725545 0
-0.039052 +0.109756 0
-0.134664 +0.378477 0
-0.083723 +0.235304 0
-0.188538 +0.529889 0
-0.232978 +0.654790 0
-0.309932 +0.871072 0
-0.270936 +0.761471 0
-0.307971 +0.865560 0
-0.130953 +0.368047 0
-0.217650 +0.611711 0
-0.156927 +0.441047 0
-0.197079 +0.553895 0
-0.256760 +0.721630 0
-0.239250 +0.672417 0
-0.179580 +0.504714 0
-0.120652 +0.339096 0
-0.135270 +0.380180 0
-0.116542 +0.327543 0
-0.054714 +0.153775 0
-0.060202 +0.169200 0
+0.028059 -0.078862 0
+0.025501 -0.071672 0
+0.078525 -0.220697 0
+0.137892 -0.387549 0
+0.074537 -0.209489 0
+0.034429 -0.096763 0
+0.095582 -0.268634 0
+0.017820 -0.050082 0
+0.164583 -0.462564 0
+0.154638 -0.434614 0
+0.084627 -0.237846 0
-0.021039 +0.059132 0
+0.046950 -0.131954 0
-0.066829 +0.187823 0
+0.114573 -0.322010 0
+0.059550 -0.167366 0
-0.002082 +0.005851 0
-0.095285 +0.267800 0
-0.038746 +0.108897 0
-0.077781 +0.218604 0
+0.006047 -0.016996 0
-0.031948 +0.089791 0
