# vtk DataFile Version 2.0
MyTitle
ASCII
DATASET UNSTRUCTURED_GRID
POINTS 849 double
2.000000 0.000000 0.000000
3.000000 1.000000 0.000000
3.000000 2.000000 0.000000
2.000000 2.000000 0.000000
1.000000 2.000000 0.000000
1.000000 3.000000 0.000000
0.000000 2.000000 0.000000
0.500000 1.500000 0.000000
1.000000 1.000000 0.000000
2.000000 1.000000 0.000000
2.125000 0.125000 0.000000
2.250000 0.250000 0.000000
2.375000 0.375000 0.000000
2.500000 0.500000 0.000000
2.625000 0.625000 0.000000
2.750000 0.750000 0.000000
2.875000 0.875000 0.000000
2.062500 0.062500 0.000000
2.187500 0.187500 0.000000
2.312500 0.312500 0.000000
2.437500 0.437500 0.000000
2.562500 0.562500 0.000000
2.687500 0.687500 0.000000
2.812500 0.812500 0.000000
2.937500 0.937500 0.000000
3.000000 1.125000 0.000000
3.000000 1.250000 0.000000
3.000000 1.375000 0.000000
3.000000 1.500000 0.000000
3.000000 1.625000 0.000000
3.000000 1.750000 0.000000
3.000000 1.875000 0.000000
3.000000 1.062500 0.000000
3.000000 1.187500 0.000000
3.000000 1.312500 0.000000
3.000000 1.437500 0.000000
3.000000 1.562500 0.000000
3.000000 1.687500 0.000000
3.000000 1.812500 0.000000
3.000000 1.937500 0.000000
2.875000 2.000000 0.000000
2.750000 2.000000 0.000000
2.625000 2.000000 0.000000
2.500000 2.000000 0.000000
2.375000 2.000000 0.000000
2.250000 2.000000 0.000000
2.125000 2.000000 0.000000
2.937500 2.000000 0.000000
2.812500 2.000000 0.000000
2.687500 2.000000 0.000000
2.562500 2.000000 0.000000
2.437500 2.000000 0.000000
2.312500 2.000000 0.000000
2.187500 2.000000 0.000000
2.062500 2.000000 0.000000
1.875000 2.000000 0.000000
1.750000 2.000000 0.000000
1.625000 2.000000 0.000000
1.500000 2.000000 0.000000
1.375000 2.000000 0.000000
1.250000 2.000000 0.000000
1.125000 2.000000 0.000000
1.937500 2.000000 0.000000
1.812500 2.000000 0.000000
1.687500 2.000000 0.000000
1.562500 2.000000 0.000000
1.437500 2.000000 0.000000
1.312500 2.000000 0.000000
1.187500 2.000000 0.000000
1.062500 2.000000 0.000000
1.000000 2.125000 0.000000
1.000000 2.250000 0.000000
1.000000 2.375000 0.000000
1.000000 2.500000 0.000000
1.000000 2.625000 0.000000
1.000000 2.750000 0.000000
1.000000 2.875000 0.000000
1.000000 2.062500 0.000000
1.000000 2.187500 0.000000
1.000000 2.312500 0.000000
1.000000 2.437500 0.000000
1.000000 2.562500 0.000000
1.000000 2.687500 0.000000
1.000000 2.812500 0.000000
1.000000 2.937500 0.000000
0.875000 2.875000 0.000000
0.750000 2.750000 0.000000
0.625000 2.625000 0.000000
0.500000 2.500000 0.000000
0.375000 2.375000 0.000000
0.250000 2.250000 0.000000
0.125000 2.125000 0.000000
0.937500 2.937500 0.000000
0.812500 2.812500 0.000000
0.687500 2.687500 0.000000
0.562500 2.562500 0.000000
0.437500 2.437500 0.000000
0.312500 2.312500 0.000000
0.187500 2.187500 0.000000
0.062500 2.062500 0.000000
0.062500 1.937500 0.000000
0.125000 1.875000 0.000000
0.187500 1.812500 0.000000
0.250000 1.750000 0.000000
0.312500 1.687500 0.000000
0.375000 1.625000 0.000000
0.437500 1.562500 0.000000
0.031250 1.968750 0.000000
0.093750 1.906250 0.000000
0.156250 1.843750 0.000000
0.218750 1.781250 0.000000
0.281250 1.718750 0.000000
0.343750 1.656250 0.000000
0.406250 1.593750 0.000000
0.468750 1.531250 0.000000
0.562500 1.437500 0.000000
0.625000 1.375000 0.000000
0.687500 1.312500 0.000000
0.750000 1.250000 0.000000
0.812500 1.187500 0.000000
0.875000 1.125000 0.000000
0.937500 1.062500 0.000000
0.531250 1.468750 0.000000
0.593750 1.406250 0.000000
0.656250 1.343750 0.000000
0.718750 1.281250 0.000000
0.781250 1.218750 0.000000
0.843750 1.156250 0.000000
0.906250 1.093750 0.000000
0.968750 1.031250 0.000000
1.125000 1.000000 0.000000
1.250000 1.000000 0.000000
1.375000 1.000000 0.000000
1.500000 1.000000 0.000000
1.625000 1.000000 0.000000
1.750000 1.000000 0.000000
1.875000 1.000000 0.000000
1.062500 1.000000 0.000000
1.187500 1.000000 0.000000
1.312500 1.000000 0.000000
1.437500 1.000000 0.000000
1.562500 1.000000 0.000000
1.687500 1.000000 0.000000
1.812500 1.000000 0.000000
1.937500 1.000000 0.000000
2.000000 0.875000 0.000000
2.000000 0.750000 0.000000
2.000000 0.625000 0.000000
2.000000 0.500000 0.000000
2.000000 0.375000 0.000000
2.000000 0.250000 0.000000
2.000000 0.125000 0.000000
2.000000 0.937500 0.000000
2.000000 0.812500 0.000000
2.000000 0.687500 0.000000
2.000000 0.562500 0.000000
2.000000 0.437500 0.000000
2.000000 0.312500 0.000000
2.000000 0.187500 0.000000
2.000000 0.062500 0.000000
2.125000 1.125000 0.000000
2.250000 1.250000 0.000000
2.375000 1.375000 0.000000
2.500000 1.500000 0.000000
2.625000 1.625000 0.000000
2.750000 1.750000 0.000000
2.875000 1.875000 0.000000
2.062500 1.062500 0.000000
2.187500 1.187500 0.000000
2.312500 1.312500 0.000000
2.437500 1.437500 0.000000
2.562500 1.562500 0.000000
2.687500 1.687500 0.000000
2.812500 1.812500 0.000000
2.937500 1.937500 0.000000
1.125000 1.125000 0.000000
1.250000 1.250000 0.000000
1.375000 1.375000 0.000000
1.500000 1.500000 0.000000
1.625000 1.625000 0.000000
1.750000 1.750000 0.000000
1.875000 1.875000 0.000000
1.062500 1.062500 0.000000
1.187500 1.187500 0.000000
1.312500 1.312500 0.000000
1.437500 1.437500 0.000000
1.562500 1.562500 0.000000
1.687500 1.687500 0.000000
1.812500 1.812500 0.000000
1.937500 1.937500 0.000000
0.562500 1.562500 0.000000
0.625000 1.625000 0.000000
0.687500 1.687500 0.000000
0.750000 1.750000 0.000000
0.812500 1.812500 0.000000
0.875000 1.875000 0.000000
0.937500 1.937500 0.000000
0.531250 1.531250 0.000000
0.593750 1.593750 0.000000
0.656250 1.656250 0.000000
0.718750 1.718750 0.000000
0.781250 1.781250 0.000000
0.843750 1.843750 0.000000
0.906250 1.906250 0.000000
0.968750 1.968750 0.000000
2.250000 1.000000 0.000000
2.500000 1.250000 0.000000
2.750000 1.500000 0.000000
2.250000 0.750000 0.000000
2.500000 1.000000 0.000000
2.750000 1.250000 0.000000
2.250000 0.500000 0.000000
2.500000 0.750000 0.000000
2.750000 1.000000 0.000000
2.125000 0.875000 0.000000
2.250000 1.125000 0.000000
2.125000 1.000000 0.000000
2.375000 1.125000 0.000000
2.500000 1.375000 0.000000
2.375000 1.250000 0.000000
2.625000 1.375000 0.000000
2.750000 1.625000 0.000000
2.625000 1.500000 0.000000
2.875000 1.625000 0.000000
2.875000 1.750000 0.000000
2.125000 0.625000 0.000000
2.250000 0.875000 0.000000
2.125000 0.750000 0.000000
2.375000 0.875000 0.000000
2.500000 1.125000 0.000000
2.375000 1.000000 0.000000
2.625000 1.125000 0.000000
2.750000 1.375000 0.000000
2.625000 1.250000 0.000000
2.875000 1.375000 0.000000
2.875000 1.500000 0.000000
2.125000 0.375000 0.000000
2.250000 0.625000 0.000000
2.125000 0.500000 0.000000
2.375000 0.625000 0.000000
2.500000 0.875000 0.000000
2.375000 0.750000 0.000000
2.625000 0.875000 0.000000
2.750000 1.125000 0.000000
2.625000 1.000000 0.000000
2.875000 1.125000 0.000000
2.875000 1.250000 0.000000
2.250000 0.375000 0.000000
2.125000 0.250000 0.000000
2.500000 0.625000 0.000000
2.375000 0.500000 0.000000
2.750000 0.875000 0.000000
2.625000 0.750000 0.000000
2.875000 1.000000 0.000000
2.062500 0.937500 0.000000
2.125000 1.062500 0.000000
2.062500 0.812500 0.000000
2.125000 0.937500 0.000000
2.187500 0.937500 0.000000
2.250000 1.062500 0.000000
2.187500 1.062500 0.000000
2.250000 1.187500 0.000000
2.312500 1.187500 0.000000
2.375000 1.312500 0.000000
2.312500 1.062500 0.000000
2.375000 1.187500 0.000000
2.437500 1.187500 0.000000
2.500000 1.312500 0.000000
2.437500 1.312500 0.000000
2.500000 1.437500 0.000000
2.562500 1.437500 0.000000
2.625000 1.562500 0.000000
2.562500 1.312500 0.000000
2.625000 1.437500 0.000000
2.687500 1.437500 0.000000
2.750000 1.562500 0.000000
2.687500 1.562500 0.000000
2.750000 1.687500 0.000000
2.812500 1.687500 0.000000
2.875000 1.812500 0.000000
2.812500 1.562500 0.000000
2.875000 1.687500 0.000000
2.937500 1.687500 0.000000
2.937500 1.812500 0.000000
2.062500 0.687500 0.000000
2.125000 0.812500 0.000000
2.062500 0.562500 0.000000
2.125000 0.687500 0.000000
2.187500 0.687500 0.000000
2.250000 0.812500 0.000000
2.187500 0.812500 0.000000
2.250000 0.937500 0.000000
2.312500 0.937500 0.000000
2.375000 1.062500 0.000000
2.312500 0.812500 0.000000
2.375000 0.937500 0.000000
2.437500 0.937500 0.000000
2.500000 1.062500 0.000000
2.437500 1.062500 0.000000
2.500000 1.187500 0.000000
2.562500 1.187500 0.000000
2.625000 1.312500 0.000000
2.562500 1.062500 0.000000
2.625000 1.187500 0.000000
2.687500 1.187500 0.000000
2.750000 1.312500 0.000000
2.687500 1.312500 0.000000
2.750000 1.437500 0.000000
2.812500 1.437500 0.000000
2.875000 1.562500 0.000000
2.812500 1.312500 0.000000
2.875000 1.437500 0.000000
2.937500 1.437500 0.000000
2.937500 1.562500 0.000000
2.062500 0.437500 0.000000
2.125000 0.562500 0.000000
2.062500 0.312500 0.000000
2.125000 0.437500 0.000000
2.187500 0.437500 0.000000
2.250000 0.562500 0.000000
2.187500 0.562500 0.000000
2.250000 0.687500 0.000000
2.312500 0.687500 0.000000
2.375000 0.812500 0.000000
2.312500 0.562500 0.000000
2.375000 0.687500 0.000000
2.437500 0.687500 0.000000
2.500000 0.812500 0.000000
2.437500 0.812500 0.000000
2.500000 0.937500 0.000000
2.562500 0.937500 0.000000
2.625000 1.062500 0.000000
2.562500 0.812500 0.000000
2.625000 0.937500 0.000000
2.687500 0.937500 0.000000
2.750000 1.062500 0.000000
2.687500 1.062500 0.000000
2.750000 1.187500 0.000000
2.812500 1.187500 0.000000
2.875000 1.312500 0.000000
2.812500 1.062500 0.000000
2.875000 1.187500 0.000000
2.937500 1.187500 0.000000
2.937500 1.312500 0.000000
2.062500 0.187500 0.000000
2.125000 0.312500 0.000000
2.125000 0.187500 0.000000
2.250000 0.312500 0.000000
2.187500 0.312500 0.000000
2.250000 0.437500 0.000000
2.312500 0.437500 0.000000
2.375000 0.562500 0.000000
2.375000 0.437500 0.000000
2.500000 0.562500 0.000000
2.437500 0.562500 0.000000
2.500000 0.687500 0.000000
2.562500 0.687500 0.000000
2.625000 0.812500 0.000000
2.625000 0.687500 0.000000
2.750000 0.812500 0.000000
2.687500 0.812500 0.000000
2.750000 0.937500 0.000000
2.812500 0.937500 0.000000
2.875000 1.062500 0.000000
2.875000 0.937500 0.000000
2.937500 1.062500 0.000000
1.500000 1.250000 0.000000
[...]
POINT_DATA 849
VECTORS sol double
+0.000000 +0.000000 0
+0.000000 +0.000000 0
+0.000000 +0.000000 0
+0.000000 +0.000000 0
+0.000000 +0.000000 0
+0.000000 +0.000000 0
+0.000000 +0.000000 0
+0.000000 +0.000000 0
+0.000000 +0.000000 0
+0.000000 +0.000000 0
+0.000000 +0.000000 0
+0.000000 +0.000000 0
+0.000000 +0.000000 0
+0.000000 +0.000000 0
+0.000000 +0.000000 0
+0.000000 +0.000000 0
+0.000000 +0.000000 0
+0.000000 +0.000000 0
+0.000000 +0.000000 0
+0.000000 +0.000000 0
+0.000000 +0.000000 0
+0.000000 +0.000000 0
+0.000000 +0.000000 0
+0.000000 +0.000000 0
+0.000000 +0.000000 0
+0.000000 +0.000000 0
+0.000000 +0.000000 0
+0.000000 +0.000000 0
+0.000000 +0.000000 0
+0.000000 +0.000000 0
+0.000000 +0.000000 0
+0.000000 +0.000000 0
+0.000000 +0.000000 0
+0.000000 +0.000000 0
+0.000000 +0.000000 0
+0.000000 +0.000000 0
+0.000000 +0.000000 0
+0.000000 +0.000000 0
+0.000000 +0.000000 0
+0.000000 +0.000000 0
+0.000000 +0.000000 0
+0.000000 +0.000000 0
+0.000000 +0.000000 0
+0.000000 +0.000000 0
+0.000000 +0.000000 0
+0.000000 +0.000000 0
+0.000000 +0.000000 0
+0.000000 +0.000000 0
+0.000000 +0.000000 0
+0.000000 +0.000000 0
+0.000000 +0.000000 0
+0.000000 +0.000000 0
+0.000000 +0.000000 0
+0.000000 +0.000000 0
+0.000000 +0.000000 0
+0.000000 +0.000000 0
+0.000000 +0.000000 0
+0.000000 +0.000000 0
+0.000000 +0.000000 0
+0.000000 +0.000000 0
+0.000000 +0.000000 0
+0.000000 +0.000000 0
+0.000000 +0.000000 0
+0.000000 +0.000000 0
+0.000000 +0.000000 0
+0.000000 +0.000000 0
+0.000000 +0.000000 0
+0.000000 +0.000000 0
+0.000000 +0.000000 0
+0.000000 +0.000000 0
+0.000000 +0.000000 0
+0.000000 +0.000000 0
+0.000000 +0.000000 0
+0.000000 +0.000000 0
+0.000000 +0.000000 0
+0.000000 +0.000000 0
+0.000000 +0.000000 0
+0.000000 +0.000000 0
+0.000000 +0.000000 0
+0.000000 +0.000000 0
+0.000000 +0.000000 0
+0.000000 +0.000000 0
+0.000000 +0.000000 0
+0.000000 +0.000000 0
+0.000000 +0.000000 0
+0.000000 +0.000000 0
+0.000000 +0.000000 0
+0.000000 +0.000000 0
+0.000000 +0.000000 0
+0.000000 +0.000000 0
+0.000000 +0.000000 0
+0.000000 +0.000000 0
+0.000000 +0.000000 0
+0.000000 +0.000000 0
+0.000000 +0.000000 0
+0.000000 +0.000000 0
+0.000000 +0.000000 0
+0.000000 +0.000000 0
+0.000000 +0.000000 0
+0.000000 +0.000000 0
+0.000000 +0.000000 0
+0.000000 +0.000000 0
+0.000000 +0.000000 0
+0.000000 +0.000000 0
+0.000000 +0.000000 0
+0.000000 +0.000000 0
+0.000000 +0.000000 0
+0.000000 +0.000000 0
+0.000000 +0.000000 0
+0.000000 +0.000000 0
+0.000000 +0.000000 0
+0.000000 +0.000000 0
+0.000000 +0.000000 0
+0.000000 +0.000000 0
+0.000000 +0.000000 0
+0.000000 +0.000000 0
+0.000000 +0.000000 0
+0.000000 +0.000000 0
+0.000000 +0.000000 0
+0.000000 +0.000000 0
+0.000000 +0.000000 0
+0.000000 +0.000000 0
+0.000000 +0.000000 0
+0.000000 +0.000000 0
+0.000000 +0.000000 0
+0.000000 +0.000000 0
+0.000000 +0.000000 0
+0.000000 +0.000000 0
+0.000000 +0.000000 0
+0.000000 +0.000000 0
+0.000000 +0.000000 0
+0.000000 +0.000000 0
+0.000000 +0.000000 0
+0.000000 +0.000000 0
+0.000000 +0.000000 0
+0.000000 +0.000000 0
+0.000000 +0.000000 0
+0.000000 +0.000000 0
+0.000000 +0.000000 0
+0.000000 +0.000000 0
+0.000000 +0.000000 0
+0.000000 +0.000000 0
+0.000000 +0.000000 0
+0.000000 +0.000000 0
+0.000000 +0.000000 0
+0.000000 +0.000000 0
+0.000000 +0.000000 0
+0.000000 +0.000000 0
+0.000000 +0.000000 0
+0.000000 +0.000000 0
+0.000000 +0.000000 0
+0.000000 +0.000000 0
+0.000000 +0.000000 0
+0.000000 +0.000000 0
+0.000000 +0.000000 0
+0.000000 +0.000000 0
+0.000000 +0.000000 0
+0.000000 +0.000000 0
+0.000000 +0.000000 0
+0.000000 +0.000000 0
-0.246967 -0.772945 0
-0.348693 -1.091320 0
-0.365129 -1.142761 0
-0.311937 -0.976282 0
-0.215606 -0.674792 0
-0.110144 -0.344721 0
-0.029865 -0.093468 0
-0.146611 -0.458856 0
-0.311652 -0.975390 0
-0.366505 -1.147067 0
-0.346105 -1.083220 0
-0.267349 -0.836734 0
-0.161990 -0.506989 0
-0.065119 -0.203805 0
-0.007671 -0.024007 0
-0.053417 -0.167182 0
-0.131680 -0.412124 0
-0.206973 -0.647774 0
-0.257328 -0.805371 0
-0.264450 -0.827660 0
-0.219166 -0.685934 0
-0.125313 -0.392199 0
-0.021222 -0.066419 0
-0.091532 -0.286471 0
-0.171161 -0.535690 0
-0.236601 -0.740500 0
-0.267135 -0.836063 0
-0.248424 -0.777503 0
-0.177497 -0.555521 0
-0.065091 -0.203718 0
-0.019962 -0.062476 0
-0.038047 -0.119079 0
-0.052440 -0.164122 0
-0.061423 -0.192237 0
-0.063438 -0.198546 0
-0.056762 -0.177650 0
-0.039657 -0.124117 0
-0.010100 -0.031610 0
-0.029357 -0.091881 0
-0.045819 -0.143402 0
-0.057713 -0.180626 0
-0.063418 -0.198481 0
-0.061264 -0.191741 0
-0.050394 -0.157721 0
-0.022111 -0.069203 0
-0.214905 -0.672599 0
-0.311942 -0.976298 0
-0.177948 -0.556933 0
-0.096564 -0.302220 0
-0.217258 -0.679961 0
-0.179234 -0.560956 0
-0.027559 -0.086254 0
-0.092709 -0.290154 0
-0.112951 -0.353509 0
-0.092109 -0.288278 0
-0.287197 -0.898853 0
-0.156381 -0.489433 0
-0.296436 -0.927770 0
-0.326641 -1.022303 0
-0.344305 -1.077586 0
-0.266023 -0.832585 0
-0.151538 -0.474275 0
-0.252965 -0.791716 0
-0.078145 -0.244574 0
-0.056871 -0.177991 0
-0.034233 -0.107139 0
-0.149371 -0.467493 0
-0.057557 -0.180140 0
-0.168081 -0.526049 0
-0.272868 -0.854008 0
-0.233532 -0.730895 0
-0.222708 -0.697021 0
-0.187399 -0.586512 0
-0.255060 -0.798271 0
-0.096655 -0.302505 0
-0.091838 -0.287428 0
-0.007537 -0.023590 0
-0.056459 -0.176702 0
-0.017990 -0.056304 0
-0.058987 -0.184615 0
-0.154333 -0.483022 0
-0.108368 -0.339165 0
-0.114803 -0.359304 0
-0.153920 -0.481731 0
-0.173772 -0.543861 0
-0.076835 -0.240473 0
-0.091953 -0.287789 0
-0.009121 -0.028546 0
-0.001942 -0.006077 0
-0.039501 -0.123627 0
-0.022513 -0.070460 0
-0.059424 -0.185981 0
-0.053969 -0.168908 0
-0.046540 -0.145658 0
-0.065200 -0.204060 0
-0.194808 -0.609698 0
-0.038680 -0.121058 0
-0.118714 -0.371546 0
-0.155405 -0.486377 0
-0.251745 -0.787898 0
-0.230038 -0.719961 0
-0.322387 -1.008989 0
-0.325941 -1.020113 0
-0.358354 -1.121556 0
-0.263331 -0.824158 0
-0.323073 -1.011136 0
-0.312614 -0.978402 0
-0.322844 -1.010420 0
-0.343834 -1.076111 0
-0.323250 -1.011691 0
-0.295290 -0.924183 0
-0.237191 -0.742347 0
-0.295817 -0.925831 0
-0.262609 -0.821898 0
-0.225564 -0.705956 0
-0.166783 -0.521988 0
-0.203565 -0.637106 0
-0.132482 -0.414634 0
-0.101188 -0.316692 0
-0.043857 -0.137262 0
-0.127390 -0.398697 0
-0.068312 -0.213799 0
-0.034429 -0.107753 0
-0.022118 -0.069224 0
-0.023604 -0.073873 0
-0.072678 -0.227464 0
-0.013381 -0.041878 0
-0.044848 -0.140363 0
-0.062513 -0.195648 0
-0.121100 -0.379011 0
-0.100887 -0.315750 0
-0.180364 -0.564494 0
-0.195161 -0.610805 0
-0.266141 -0.832953 0
-0.133114 -0.416612 0
-0.200500 -0.627514 0
-0.197153 -0.617040 0
-0.246628 -0.771883 0
-0.260177 -0.814289 0
-0.295125 -0.923666 0
-0.271059 -0.848347 0
-0.263505 -0.824702 0
-0.226158 -0.707818 0
-0.241394 -0.755501 0
-0.206869 -0.647448 0
-0.185567 -0.580776 0
-0.226432 -0.708674 0
-0.184907 -0.578713 0
-0.141255 -0.442092 0
-0.086021 -0.269223 0
-0.141599 -0.443167 0
-0.095409 -0.298606 0
-0.048061 -0.150418 0
-0.043348 -0.135668 0
-0.006542 -0.020474 0
-0.025326 -0.079264 0
-0.002442 -0.007644 0
-0.012103 -0.037878 0
-0.015888 -0.049726 0
-0.040613 -0.127108 0
-0.034792 -0.108891 0
-0.074964 -0.234620 0
-0.081691 -0.255672 0
-0.137067 -0.428986 0
-0.042214 -0.132119 0
-0.082113 -0.256992 0
-0.076358 -0.238982 0
-0.122828 -0.384421 0
-0.133453 -0.417674 0
-0.186152 -0.582607 0
-0.168375 -0.526972 0
-0.200016 -0.625998 0
-0.106028 -0.331842 0
-0.145084 -0.454075 0
-0.117587 -0.368016 0
-0.135416 -0.423818 0
-0.169253 -0.529720 0
-0.168760 -0.528176 0
-0.128013 -0.400649 0
-0.095552 -0.299053 0
-0.099745 -0.312178 0
-0.085905 -0.268860 0
-0.042890 -0.134235 0
-0.048051 -0.150387 0
-0.000518 -0.001623 0
-0.004220 -0.013208 0
-0.000648 -0.002028 0
-0.003504 -0.010967 0
-0.004759 -0.014893 0
-0.017065 -0.053408 0
-0.015095 -0.047243 0
-0.038983 -0.122007 0
-0.009469 -0.029636 0
-0.017707 -0.055417 0
-0.030832 -0.096496 0
-0.064601 -0.202183 0
-0.047445 -0.148490 0
-0.084068 -0.263110 0
-0.025590 -0.080090 0
-0.029468 -0.092227 0
-0.058170 -0.182056 0
-0.087370 -0.273447 0
-0.056151 -0.175738 0
-0.064148 -0.200766 0
-0.026608 -0.083276 0
-0.030887 -0.096669 0
-0.183143 -0.573190 0
-0.317496 -0.993682 0
-0.243093 -0.760820 0
-0.233566 -0.731003 0
-0.363919 -1.138972 0
-0.239435 -0.749371 0
-0.295443 -0.924661 0
-0.372699 -1.166452 0
-0.195301 -0.611242 0
-0.085329 -0.267058 0
-0.158042 -0.494630 0
-0.070498 -0.220641 0
-0.268992 -0.841878 0
-0.288447 -0.902766 0
-0.238514 -0.746487 0
-0.309992 -0.970197 0
-0.233614 -0.731151 0
-0.289194 -0.905102 0
-0.130825 -0.409448 0
-0.129927 -0.406640 0
-0.113412 -0.354950 0
-0.207908 -0.650699 0
-0.099357 -0.310962 0
-0.327774 -1.025849 0
-0.343395 -1.074740 0
-0.298771 -0.935078 0
-0.330563 -1.034579 0
-0.245678 -0.768910 0
-0.324729 -1.016318 0
-0.117900 -0.368997 0
-0.127050 -0.397635 0
-0.149387 -0.467542 0
-0.262390 -0.821214 0
-0.128837 -0.403227 0
-0.374686 -1.172672 0
-0.375278 -1.174524 0
-0.354568 -1.109707 0
-0.303650 -0.950347 0
-0.222859 -0.697491 0
-0.324381 -1.015229 0
-0.082875 -0.259378 0
-0.103092 -0.322653 0
-0.328627 -1.028519 0
-0.190144 -0.595104 0
-0.352253 -1.102463 0
-0.380446 -1.190697 0
-0.157280 -0.492245 0
-0.267268 -0.836480 0
-0.058090 -0.181808 0
-0.031637 -0.099015 0
-0.062486 -0.195564 0
-0.039768 -0.124463 0
-0.078104 -0.244445 0
-0.134137 -0.419815 0
-0.170685 -0.534201 0
-0.113614 -0.355582 0
-0.145030 -0.453906 0
-0.200656 -0.628002 0
-0.222885 -0.697574 0
-0.229184 -0.717288 0
-0.253844 -0.794467 0
-0.299328 -0.936821 0
-0.303271 -0.949159 0
-0.268632 -0.840750 0
-0.273093 -0.854710 0
-0.295734 -0.925572 0
-0.277220 -0.867626 0
-0.321358 -1.005769 0
-0.300216 -0.939600 0
-0.283465 -0.887172 0
-0.239118 -0.748378 0
-0.268292 -0.839684 0
-0.226924 -0.710213 0
-0.186684 -0.584274 0
-0.128054 -0.400776 0
-0.191175 -0.598329 0
-0.130933 -0.409788 0
-0.065783 -0.205883 0
-0.066514 -0.208171 0
-0.047133 -0.147515 0
-0.092408 -0.289213 0
-0.054318 -0.170002 0
-0.106331 -0.332790 0
-0.174441 -0.545954 0
-0.220474 -0.690026 0
-0.154042 -0.482113 0
-0.195493 -0.611843 0
-0.257392 -0.805572 0
-0.283931 -0.888631 0
-0.286196 -0.895722 0
-0.313373 -0.980779 0
-0.354389 -1.109147 0
-0.354559 -1.109680 0
-0.328313 -1.027536 0
-0.330949 -1.035786 0
-0.342268 -1.071212 0
-0.318313 -0.996237 0
-0.355670 -1.113156 0
-0.329002 -1.029691 0
-0.290787 -0.910090 0
-0.243802 -0.763036 0
-0.291800 -0.913260 0
-0.245405 -0.768056 0
-0.189514 -0.593129 0
-0.129597 -0.405606 0
-0.180399 -0.564604 0
-0.123190 -0.385554 0
-0.056375 -0.176440 0
-0.062487 -0.195567 0
-0.061938 -0.193851 0
-0.120816 -0.378123 0
-0.071352 -0.223313 0
-0.137863 -0.431475 0
-0.228143 -0.714030 0
-0.278227 -0.870779 0
-0.197434 -0.617916 0
-0.247316 -0.774036 0
-0.316168 -0.989525 0
-0.341672 -1.069345 0
-0.345277 -1.080630 0
-0.366022 -1.145554 0
-0.383394 -1.199927 0
-0.376087 -1.177056 0
-0.374532 -1.172190 0
-0.371095 -1.161431 0
-0.357842 -1.119953 0
-0.329201 -1.030316 0
-0.345104 -1.080088 0
-0.315971 -0.988909 0
-0.252278 -0.789567 0
-0.210464 -0.658699 0
-0.278105 -0.870399 0
-0.232527 -0.727750 0
-0.163032 -0.510249 0
-0.111201 -0.348031 0
-0.137367 -0.429924 0
-0.093607 -0.292965 0
-0.035960 -0.112547 0
-0.047441 -0.148477 0
-0.088003 -0.275426 0
-0.165827 -0.518996 0
-0.213899 -0.669449 0
-0.342703 -1.072572 0
-0.269982 -0.844974 0
-0.313290 -0.980518 0
-0.365659 -1.144418 0
-0.379843 -1.188813 0
-0.375350 -1.174750 0
-0.334676 -1.047449 0
-0.375058 -1.173834 0
-0.364951 -1.142205 0
-0.315053 -0.986036 0
-0.287435 -0.899598 0
-0.243197 -0.761145 0
-0.134688 -0.421539 0
-0.213102 -0.666955 0
-0.177531 -0.555628 0
-0.104178 -0.326050 0
-0.070962 -0.222093 0
-0.044264 -0.138536 0
-0.022444 -0.070242 0
-0.064639 -0.202305 0
-0.098796 -0.309206 0
-0.077111 -0.241337 0
-0.096435 -0.301816 0
-0.148633 -0.465183 0
-0.117378 -0.367362 0
-0.123609 -0.386863 0
-0.204670 -0.640564 0
-0.167131 -0.523077 0
-0.034251 -0.107198 0
-0.050370 -0.157646 0
-0.026598 -0.083246 0
-0.087358 -0.273409 0
-0.078544 -0.245823 0
-0.068561 -0.214580 0
-0.095919 -0.300201 0
-0.064029 -0.200394 0
-0.077925 -0.243886 0
-0.043847 -0.137231 0
-0.036798 -0.115170 0
-0.050786 -0.158948 0
-0.080332 -0.251419 0
-0.042548 -0.133165 0
-0.131049 -0.410148 0
-0.122362 -0.382963 0
-0.108484 -0.339527 0
-0.144660 -0.452750 0
-0.095496 -0.298877 0
-0.118421 -0.370626 0
-0.067948 -0.212659 0
-0.055088 -0.172412 0
-0.062189 -0.194636 0
-0.111464 -0.348855 0
-0.057865 -0.181104 0
-0.174911 -0.547428 0
-0.176493 -0.552377 0
-0.153713 -0.481083 0
-0.203606 -0.637235 0
-0.141549 -0.443012 0
-0.173420 -0.542760 0
-0.096650 -0.302490 0
-0.081980 -0.256576 0
-0.130944 -0.409821 0
-0.061408 -0.192192 0
-0.231965 -0.725991 0
-0.193110 -0.604386 0
-0.193315 -0.605028 0
-0.234250 -0.733144 0
-0.111361 -0.348531 0
-0.013476 -0.042177 0
-0.023138 -0.072417 0
-0.017369 -0.054361 0
-0.030315 -0.094877 0
-0.050172 -0.157027 0
-0.057284 -0.179283 0
-0.039011 -0.122094 0
-0.043945 -0.137537 0
-0.060328 -0.188812 0
-0.060154 -0.188266 0
-0.077194 -0.241598 0
-0.077631 -0.242966 0
-0.094700 -0.296388 0
-0.088262 -0.276238 0
-0.074731 -0.233889 0
-0.069625 -0.217909 0
-0.079709 -0.249470 0
-0.070309 -0.220048 0
-0.099308 -0.310809 0
-0.086351 -0.270255 0
-0.088457 -0.276847 0
-0.069805 -0.218472 0
-0.072806 -0.227865 0
-0.060343 -0.188858 0
-0.051931 -0.162530 0
-0.035533 -0.111210 0
-0.062048 -0.194195 0
-0.039486 -0.123582 0
-0.023221 -0.072676 0
-0.018460 -0.057777 0
-0.021573 -0.067520 0
-0.038359 -0.120053 0
-0.025710 -0.080465 0
-0.046743 -0.146294 0
-0.074621 -0.233546 0
-0.088424 -0.276746 0
-0.062348 -0.195132 0
-0.072364 -0.226482 0
-0.095923 -0.300214 0
-0.097675 -0.305698 0
-0.115522 -0.361556 0
-0.119666 -0.374523 0
-0.142309 -0.445391 0
-0.135217 -0.423194 0
-0.117470 -0.367653 0
-0.110188 -0.344862 0
-0.122754 -0.384190 0
-0.106624 -0.333705 0
-0.149514 -0.467941 0
-0.131138 -0.410428 0
-0.133908 -0.419099 0
-0.106079 -0.332002 0
-0.109270 -0.341986 0
-0.085724 -0.268293 0
-0.077286 -0.241886 0
-0.049213 -0.154024 0
-0.095256 -0.298125 0
-0.061340 -0.191979 0
-0.035958 -0.112539 0
-0.029152 -0.091239 0
-0.029168 -0.091289 0
-0.054579 -0.170817 0
-0.031004 -0.097034 0
-0.060539 -0.189473 0
-0.093466 -0.292526 0
-0.118038 -0.369428 0
-0.085610 -0.267938 0
-0.104208 -0.326145 0
-0.134546 -0.421096 0
-0.142467 -0.445887 0
-0.151277 -0.473460 0
-0.164599 -0.515152 0
-0.193159 -0.604537 0
-0.190611 -0.596565 0
-0.168006 -0.525816 0
-0.162437 -0.508386 0
-0.178457 -0.558524 0
-0.158784 -0.496954 0
-0.208400 -0.652239 0
-0.188386 -0.589599 0
-0.189840 -0.594150 0
-0.154204 -0.482619 0
-0.161097 -0.504191 0
-0.129227 -0.404449 0
-0.114977 -0.359848 0
-0.074852 -0.234267 0
-0.135778 -0.424950 0
-0.089274 -0.279406 0
-0.050860 -0.159180 0
-0.043291 -0.135490 0
-0.029646 -0.092785 0
-0.062697 -0.196226 0
-0.058822 -0.184099 0
-0.132150 -0.413595 0
-0.096090 -0.300737 0
-0.127986 -0.400563 0
-0.163975 -0.513201 0
-0.184485 -0.577392 0
-0.200675 -0.628061 0
-0.244926 -0.766557 0
-0.216410 -0.677307 0
-0.218485 -0.683803 0
-0.238270 -0.745726 0
-0.218915 -0.685149 0
-0.249445 -0.780698 0
-0.206341 -0.645796 0
-0.219249 -0.686193 0
-0.180194 -0.563961 0
-0.156920 -0.491121 0
-0.104057 -0.325673 0
-0.118514 -0.370918 0
-0.058293 -0.182442 0
-0.010975 -0.034350 0
-0.010239 -0.032044 0
-0.003125 -0.009779 0
-0.020976 -0.065650 0
-0.023286 -0.072879 0
-0.009539 -0.029854 0
-0.030297 -0.094822 0
-0.040410 -0.126474 0
-0.021916 -0.068590 0
-0.006503 -0.020351 0
-0.005627 -0.017611 0
-0.003412 -0.010679 0
-0.012178 -0.038114 0
-0.004736 -0.014824 0
-0.005993 -0.018755 0
-0.006610 -0.020689 0
-0.001153 -0.003608 0
-0.002798 -0.008756 0
-0.000883 -0.002762 0
-0.000251 -0.000787 0
-0.011919 -0.037304 0
-0.016074 -0.050306 0
-0.009323 -0.029177 0
-0.025009 -0.078272 0
-0.016395 -0.051312 0
-0.018501 -0.057904 0
-0.017111 -0.053554 0
-0.005905 -0.018481 0
-0.011348 -0.035516 0
-0.003469 -0.010857 0
-0.001947 -0.006093 0
-0.016522 -0.051710 0
-0.025726 -0.080515 0
-0.014322 -0.044823 0
-0.038875 -0.121670 0
-0.031186 -0.097606 0
-0.031795 -0.099511 0
-0.034243 -0.107171 0
-0.014445 -0.045209 0
-0.024385 -0.076320 0
-0.008558 -0.026785 0
-0.005602 -0.017533 0
-0.034525 -0.108054 0
-0.018452 -0.057749 0
-0.050861 -0.159182 0
-0.045985 -0.143922 0
-0.035034 -0.109647 0
-0.047654 -0.149144 0
-0.016603 -0.051964 0
-0.001790 -0.005601 0
-0.001755 -0.005493 0
-0.003389 -0.010607 0
-0.004998 -0.015643 0
-0.009100 -0.028482 0
-0.008340 -0.026101 0
-0.004733 -0.014812 0
-0.002855 -0.008936 0
-0.006052 -0.018943 0
-0.002966 -0.009282 0
-0.012015 -0.037605 0
-0.009068 -0.028382 0
-0.011533 -0.036095 0
-0.007400 -0.023159 0
-0.005519 -0.017274 0
-0.002255 -0.007056 0
-0.003781 -0.011833 0
-0.001257 -0.003933 0
-0.008512 -0.026641 0
-0.004581 -0.014338 0
-0.004755 -0.014882 0
-0.002034 -0.006366 0
-0.001893 -0.005923 0
-0.000472 -0.001476 0
-0.000604 -0.001890 0
-0.000087 -0.000273 0
-0.001821 -0.005699 0
-0.000515 -0.001612 0
-0.000294 -0.000921 0
-0.000067 -0.000211 0
-0.004833 -0.015126 0
-0.007946 -0.024869 0
-0.006148 -0.019241 0
-0.010649 -0.033329 0
-0.016969 -0.053107 0
-0.018550 -0.058057 0
-0.013160 -0.041189 0
-0.013557 -0.042429 0
-0.017886 -0.055978 0
-0.015323 -0.047956 0
-0.023711 -0.074210 0
-0.021729 -0.068006 0
-0.024836 -0.077729 0
-0.019733 -0.061758 0
-0.017952 -0.056186 0
-0.013232 -0.041413 0
-0.014079 -0.044064 0
-0.008860 -0.027729 0
-0.020580 -0.064410 0
-0.014076 -0.044054 0
-0.013284 -0.041575 0
-0.007600 -0.023787 0
-0.008524 -0.026678 0
-0.004411 -0.013806 0
-0.003677 -0.011508 0
-0.001358 -0.004251 0
-0.006217 -0.019458 0
-0.002646 -0.008282 0
-0.001408 -0.004408 0
-0.000735 -0.002299 0
-0.007350 -0.023004 0
-0.013147 -0.041145 0
-0.008437 -0.026406 0
-0.015452 -0.048360 0
-0.023920 -0.074864 0
-0.028045 -0.087774 0
-0.020561 -0.064350 0
-0.023374 -0.073154 0
-0.029549 -0.092481 0
-0.028368 -0.088784 0
-0.035376 -0.110716 0
-0.035313 -0.110520 0
-0.040611 -0.127101 0
-0.035633 -0.111521 0
-0.032350 -0.101247 0
-0.027086 -0.084771 0
-0.028425 -0.088964 0
-0.020498 -0.064152 0
-0.038275 -0.119792 0
-0.028904 -0.090462 0
-0.028540 -0.089324 0
-0.017654 -0.055253 0
-0.019514 -0.061075 0
-0.011780 -0.036869 0
-0.009637 -0.030162 0
-0.004448 -0.013921 0
-0.014963 -0.046832 0
-0.006916 -0.021644 0
-0.003838 -0.012013 0
-0.002355 -0.007369 0
-0.009377 -0.029347 0
-0.017529 -0.054863 0
-0.019272 -0.060317 0
-0.036406 -0.113942 0
-0.026933 -0.084293 0
-0.032476 -0.101642 0
-0.040968 -0.128218 0
-0.042464 -0.132901 0
-0.049356 -0.154473 0
-0.056256 -0.176068 0
-0.049364 -0.154495 0
-0.045556 -0.142578 0
-0.050371 -0.157648 0
-0.040474 -0.126672 0
-0.055424 -0.173462 0
-0.045567 -0.142612 0
-0.042580 -0.133265 0
-0.027553 -0.086235 0
-0.026059 -0.081557 0
-0.011417 -0.035732 0
-0.023671 -0.074083 0
-0.006179 -0.019339 0
