# vtk DataFile Version 2.0
MyTitle
ASCII
DATASET UNSTRUCTURED_GRID
POINTS 601 double
2.000000 0.000000 0.000000
2.000000 1.000000 0.000000
3.000000 1.000000 0.000000
2.000000 2.000000 0.000000
1.000000 2.000000 0.000000
1.000000 3.000000 0.000000
0.000000 3.000000 0.000000
0.000000 2.000000 0.000000
1.000000 1.000000 0.000000
1.500000 1.500000 0.000000
2.500000 1.500000 0.000000
2.000000 0.166667 0.000000
2.000000 0.333333 0.000000
2.000000 0.500000 0.000000
2.000000 0.666667 0.000000
2.000000 0.833333 0.000000
2.000000 0.083333 0.000000
2.000000 0.250000 0.000000
2.000000 0.416667 0.000000
2.000000 0.583333 0.000000
2.000000 0.750000 0.000000
2.000000 0.916667 0.000000
2.166667 1.000000 0.000000
2.333333 1.000000 0.000000
2.500000 1.000000 0.000000
2.666667 1.000000 0.000000
2.833333 1.000000 0.000000
2.083333 1.000000 0.000000
2.250000 1.000000 0.000000
2.416667 1.000000 0.000000
2.583333 1.000000 0.000000
2.750000 1.000000 0.000000
2.916667 1.000000 0.000000
2.916667 1.083333 0.000000
2.833333 1.166667 0.000000
2.750000 1.250000 0.000000
2.666667 1.333333 0.000000
2.583333 1.416667 0.000000
2.958333 1.041667 0.000000
2.875000 1.125000 0.000000
2.791667 1.208333 0.000000
2.708333 1.291667 0.000000
2.625000 1.375000 0.000000
2.541667 1.458333 0.000000
1.833333 2.000000 0.000000
1.666667 2.000000 0.000000
1.500000 2.000000 0.000000
1.333333 2.000000 0.000000
1.166667 2.000000 0.000000
1.916667 2.000000 0.000000
1.750000 2.000000 0.000000
1.583333 2.000000 0.000000
1.416667 2.000000 0.000000
1.250000 2.000000 0.000000
1.083333 2.000000 0.000000
1.000000 2.166667 0.000000
1.000000 2.333333 0.000000
1.000000 2.500000 0.000000
1.000000 2.666667 0.000000
1.000000 2.833333 0.000000
1.000000 2.083333 0.000000
1.000000 2.250000 0.000000
1.000000 2.416667 0.000000
1.000000 2.583333 0.000000
1.000000 2.750000 0.000000
1.000000 2.916667 0.000000
0.833333 3.000000 0.000000
0.666667 3.000000 0.000000
0.500000 3.000000 0.000000
0.333333 3.000000 0.000000
0.166667 3.000000 0.000000
0.916667 3.000000 0.000000
0.750000 3.000000 0.000000
0.583333 3.000000 0.000000
0.416667 3.000000 0.000000
0.250000 3.000000 0.000000
0.083333 3.000000 0.000000
0.000000 2.833333 0.000000
0.000000 2.666667 0.000000
0.000000 2.500000 0.000000
0.000000 2.333333 0.000000
0.000000 2.166667 0.000000
0.000000 2.916667 0.000000
0.000000 2.750000 0.000000
0.000000 2.583333 0.000000
0.000000 2.416667 0.000000
0.000000 2.250000 0.000000
0.000000 2.083333 0.000000
0.166667 1.833333 0.000000
0.333333 1.666667 0.000000
0.500000 1.500000 0.000000
0.666667 1.333333 0.000000
0.833333 1.166667 0.000000
0.083333 1.916667 0.000000
0.250000 1.750000 0.000000
0.416667 1.583333 0.000000
0.583333 1.416667 0.000000
0.750000 1.250000 0.000000
0.916667 1.083333 0.000000
1.166667 0.833333 0.000000
1.333333 0.666667 0.000000
1.500000 0.500000 0.000000
1.666667 0.333333 0.000000
1.833333 0.166667 0.000000
1.083333 0.916667 0.000000
1.250000 0.750000 0.000000
1.416667 0.583333 0.000000
1.583333 0.416667 0.000000
1.750000 0.250000 0.000000
1.916667 0.083333 0.000000
1.916667 1.083333 0.000000
1.833333 1.166667 0.000000
1.750000 1.250000 0.000000
1.666667 1.333333 0.000000
1.583333 1.416667 0.000000
1.958333 1.041667 0.000000
1.875000 1.125000 0.000000
1.791667 1.208333 0.000000
1.708333 1.291667 0.000000
1.625000 1.375000 0.000000
1.541667 1.458333 0.000000
0.833333 2.000000 0.000000
0.666667 2.000000 0.000000
0.500000 2.000000 0.000000
0.333333 2.000000 0.000000
0.166667 2.000000 0.000000
0.916667 2.000000 0.000000
0.750000 2.000000 0.000000
0.583333 2.000000 0.000000
0.416667 2.000000 0.000000
0.250000 2.000000 0.000000
0.083333 2.000000 0.000000
1.416667 1.583333 0.000000
1.333333 1.666667 0.000000
1.250000 1.750000 0.000000
1.166667 1.833333 0.000000
1.083333 1.916667 0.000000
1.458333 1.541667 0.000000
1.375000 1.625000 0.000000
1.291667 1.708333 0.000000
1.208333 1.791667 0.000000
1.125000 1.875000 0.000000
1.041667 1.958333 0.000000
1.416667 1.416667 0.000000
1.333333 1.333333 0.000000
1.250000 1.250000 0.000000
1.166667 1.166667 0.000000
1.083333 1.083333 0.000000
1.458333 1.458333 0.000000
1.375000 1.375000 0.000000
1.291667 1.291667 0.000000
1.208333 1.208333 0.000000
1.125000 1.125000 0.000000
1.041667 1.041667 0.000000
2.416667 1.583333 0.000000
2.333333 1.666667 0.000000
2.250000 1.750000 0.000000
2.166667 1.833333 0.000000
2.083333 1.916667 0.000000
2.458333 1.541667 0.000000
2.375000 1.625000 0.000000
2.291667 1.708333 0.000000
2.208333 1.791667 0.000000
2.125000 1.875000 0.000000
2.041667 1.958333 0.000000
2.333333 1.500000 0.000000
2.166667 1.500000 0.000000
2.000000 1.500000 0.000000
1.833333 1.500000 0.000000
1.666667 1.500000 0.000000
2.416667 1.500000 0.000000
2.250000 1.500000 0.000000
2.083333 1.500000 0.000000
1.916667 1.500000 0.000000
1.750000 1.500000 0.000000
1.583333 1.500000 0.000000
2.166667 1.166667 0.000000
2.000000 1.333333 0.000000
2.500000 1.166667 0.000000
2.333333 1.333333 0.000000
2.250000 1.083333 0.000000
2.000000 1.166667 0.000000
2.083333 1.083333 0.000000
2.083333 1.250000 0.000000
1.833333 1.333333 0.000000
1.916667 1.250000 0.000000
1.916667 1.416667 0.000000
1.750000 1.416667 0.000000
2.583333 1.083333 0.000000
2.333333 1.166667 0.000000
2.416667 1.083333 0.000000
2.416667 1.250000 0.000000
2.166667 1.333333 0.000000
2.250000 1.250000 0.000000
2.250000 1.416667 0.000000
2.083333 1.416667 0.000000
2.666667 1.166667 0.000000
2.750000 1.083333 0.000000
2.500000 1.333333 0.000000
2.583333 1.250000 0.000000
2.416667 1.416667 0.000000
2.125000 1.041667 0.000000
2.000000 1.083333 0.000000
2.291667 1.041667 0.000000
2.166667 1.083333 0.000000
2.208333 1.125000 0.000000
2.083333 1.166667 0.000000
2.041667 1.125000 0.000000
1.916667 1.166667 0.000000
1.958333 1.208333 0.000000
1.833333 1.250000 0.000000
2.125000 1.208333 0.000000
2.000000 1.250000 0.000000
2.041667 1.291667 0.000000
1.916667 1.333333 0.000000
1.875000 1.291667 0.000000
1.750000 1.333333 0.000000
1.791667 1.375000 0.000000
1.666667 1.416667 0.000000
1.958333 1.375000 0.000000
1.833333 1.416667 0.000000
1.875000 1.458333 0.000000
1.708333 1.458333 0.000000
2.458333 1.041667 0.000000
2.333333 1.083333 0.000000
2.625000 1.041667 0.000000
2.500000 1.083333 0.000000
2.541667 1.125000 0.000000
2.416667 1.166667 0.000000
2.375000 1.125000 0.000000
2.250000 1.166667 0.000000
2.291667 1.208333 0.000000
2.166667 1.250000 0.000000
2.458333 1.208333 0.000000
2.333333 1.250000 0.000000
2.375000 1.291667 0.000000
2.250000 1.333333 0.000000
2.208333 1.291667 0.000000
2.083333 1.333333 0.000000
2.125000 1.375000 0.000000
2.000000 1.416667 0.000000
2.291667 1.375000 0.000000
2.166667 1.416667 0.000000
2.208333 1.458333 0.000000
2.041667 1.458333 0.000000
2.791667 1.041667 0.000000
2.666667 1.083333 0.000000
2.833333 1.083333 0.000000
2.750000 1.166667 0.000000
2.708333 1.125000 0.000000
2.583333 1.166667 0.000000
2.625000 1.208333 0.000000
2.500000 1.250000 0.000000
2.666667 1.250000 0.000000
2.583333 1.333333 0.000000
2.541667 1.291667 0.000000
2.416667 1.333333 0.000000
2.458333 1.375000 0.000000
2.333333 1.416667 0.000000
2.500000 1.416667 0.000000
2.375000 1.458333 0.000000
2.000000 1.666667 0.000000
1.833333 1.833333 0.000000
1.666667 1.666667 0.000000
1.500000 1.833333 0.000000
2.166667 1.666667 0.000000
2.083333 1.583333 0.000000
2.250000 1.583333 0.000000
2.000000 1.833333 0.000000
1.916667 1.750000 0.000000
2.083333 1.750000 0.000000
1.750000 1.916667 0.000000
1.916667 1.916667 0.000000
1.833333 1.666667 0.000000
1.750000 1.583333 0.000000
1.916667 1.583333 0.000000
1.666667 1.833333 0.000000
1.583333 1.750000 0.000000
1.750000 1.750000 0.000000
1.416667 1.916667 0.000000
1.583333 1.916667 0.000000
1.500000 1.666667 0.000000
1.583333 1.583333 0.000000
1.333333 1.833333 0.000000
1.416667 1.750000 0.000000
1.250000 1.916667 0.000000
2.333333 1.583333 0.000000
2.291667 1.541667 0.000000
2.250000 1.666667 0.000000
2.208333 1.625000 0.000000
2.083333 1.666667 0.000000
2.041667 1.625000 0.000000
2.166667 1.583333 0.000000
2.125000 1.541667 0.000000
2.166667 1.750000 0.000000
2.125000 1.708333 0.000000
2.083333 1.833333 0.000000
2.041667 1.791667 0.000000
1.916667 1.833333 0.000000
1.875000 1.791667 0.000000
2.000000 1.750000 0.000000
1.958333 1.708333 0.000000
2.000000 1.916667 0.000000
1.958333 1.875000 0.000000
1.875000 1.958333 0.000000
1.708333 1.958333 0.000000
1.833333 1.916667 0.000000
1.791667 1.875000 0.000000
2.000000 1.583333 0.000000
1.958333 1.541667 0.000000
1.916667 1.666667 0.000000
1.875000 1.625000 0.000000
1.750000 1.666667 0.000000
1.708333 1.625000 0.000000
1.833333 1.583333 0.000000
1.791667 1.541667 0.000000
1.833333 1.750000 0.000000
1.791667 1.708333 0.000000
1.750000 1.833333 0.000000
1.708333 1.791667 0.000000
1.583333 1.833333 0.000000
1.541667 1.791667 0.000000
1.666667 1.750000 0.000000
1.625000 1.708333 0.000000
1.666667 1.916667 0.000000
1.625000 1.875000 0.000000
1.541667 1.958333 0.000000
1.375000 1.958333 0.000000
1.500000 1.916667 0.000000
1.458333 1.875000 0.000000
1.666667 1.583333 0.000000
1.625000 1.541667 0.000000
1.583333 1.666667 0.000000
1.541667 1.625000 0.000000
1.416667 1.666667 0.000000
1.500000 1.583333 0.000000
1.500000 1.750000 0.000000
1.458333 1.708333 0.000000
1.416667 1.833333 0.000000
1.375000 1.791667 0.000000
1.250000 1.833333 0.000000
1.333333 1.750000 0.000000
1.333333 1.916667 0.000000
1.291667 1.875000 0.000000
1.208333 1.958333 0.000000
1.166667 1.916667 0.000000
0.666667 2.333333 0.000000
0.333333 2.333333 0.000000
0.666667 2.666667 0.000000
0.333333 2.666667 0.000000
0.833333 2.333333 0.000000
0.666667 2.166667 0.000000
0.833333 2.166667 0.000000
0.500000 2.333333 0.000000
0.333333 2.166667 0.000000
0.500000 2.166667 0.000000
0.166667 2.333333 0.000000
0.166667 2.166667 0.000000
0.833333 2.666667 0.000000
0.666667 2.500000 0.000000
0.833333 2.500000 0.000000
0.500000 2.666667 0.000000
0.333333 2.500000 0.000000
0.500000 2.500000 0.000000
0.166667 2.666667 0.000000
0.166667 2.500000 0.000000
0.666667 2.833333 0.000000
[...]
POINT_DATA 601
VECTORS sol double
+0.000000 +0.000000 0
+0.000000 +0.000000 0
+0.000000 +0.000000 0
+0.000000 +0.000000 0
+0.000000 +0.000000 0
+0.000000 +0.000000 0
+0.000000 +0.000000 0
+0.000000 +0.000000 0
+0.000000 +0.000000 0
+0.012362 +0.123627 0
+0.000000 +0.000000 0
+0.000000 +0.000000 0
+0.000000 +0.000000 0
+0.000000 +0.000000 0
+0.000000 +0.000000 0
+0.000000 +0.000000 0
+0.000000 +0.000000 0
+0.000000 +0.000000 0
+0.000000 +0.000000 0
+0.000000 +0.000000 0
+0.000000 +0.000000 0
+0.000000 +0.000000 0
+0.000000 +0.000000 0
+0.000000 +0.000000 0
+0.000000 +0.000000 0
+0.000000 +0.000000 0
+0.000000 +0.000000 0
+0.000000 +0.000000 0
+0.000000 +0.000000 0
+0.000000 +0.000000 0
+0.000000 +0.000000 0
+0.000000 +0.000000 0
+0.000000 +0.000000 0
+0.000000 +0.000000 0
+0.000000 +0.000000 0
+0.000000 +0.000000 0
+0.000000 +0.000000 0
+0.000000 +0.000000 0
+0.000000 +0.000000 0
+0.000000 +0.000000 0
+0.000000 +0.000000 0
+0.000000 +0.000000 0
+0.000000 +0.000000 0
+0.000000 +0.000000 0
+0.000000 +0.000000 0
+0.000000 +0.000000 0
+0.000000 +0.000000 0
+0.000000 +0.000000 0
+0.000000 +0.000000 0
+0.000000 +0.000000 0
+0.000000 +0.000000 0
+0.000000 +0.000000 0
+0.000000 +0.000000 0
+0.000000 +0.000000 0
+0.000000 +0.000000 0
+0.000000 +0.000000 0
+0.000000 +0.000000 0
+0.000000 +0.000000 0
+0.000000 +0.000000 0
+0.000000 +0.000000 0
+0.000000 +0.000000 0
+0.000000 +0.000000 0
+0.000000 +0.000000 0
+0.000000 +0.000000 0
+0.000000 +0.000000 0
+0.000000 +0.000000 0
+0.000000 +0.000000 0
+0.000000 +0.000000 0
+0.000000 +0.000000 0
+0.000000 +0.000000 0
+0.000000 +0.000000 0
+0.000000 +0.000000 0
+0.000000 +0.000000 0
+0.000000 +0.000000 0
+0.000000 +0.000000 0
+0.000000 +0.000000 0
+0.000000 +0.000000 0
+0.000000 +0.000000 0
+0.000000 +0.000000 0
+0.000000 +0.000000 0
+0.000000 +0.000000 0
+0.000000 +0.000000 0
+0.000000 +0.000000 0
+0.000000 +0.000000 0
+0.000000 +0.000000 0
+0.000000 +0.000000 0
+0.000000 +0.000000 0
+0.000000 +0.000000 0
+0.000000 +0.000000 0
+0.000000 +0.000000 0
+0.000000 +0.000000 0
+0.000000 +0.000000 0
+0.000000 +0.000000 0
+0.000000 +0.000000 0
+0.000000 +0.000000 0
+0.000000 +0.000000 0
+0.000000 +0.000000 0
+0.000000 +0.000000 0
+0.000000 +0.000000 0
+0.000000 +0.000000 0
+0.000000 +0.000000 0
+0.000000 +0.000000 0
+0.000000 +0.000000 0
+0.000000 +0.000000 0
+0.000000 +0.000000 0
+0.000000 +0.000000 0
+0.000000 +0.000000 0
+0.000000 +0.000000 0
+0.000000 +0.000000 0
+0.000000 +0.000000 0
-0.062966 -0.629691 0
-0.087408 -0.874127 0
-0.087765 -0.877701 0
-0.066710 -0.667132 0
-0.030442 -0.304436 0
-0.034904 -0.349060 0
-0.079439 -0.794428 0
-0.090547 -0.905519 0
-0.079662 -0.796664 0
-0.050035 -0.500381 0
-0.009277 -0.092778 0
+0.039835 +0.398367 0
+0.028449 +0.284502 0
+0.006180 +0.061806 0
-0.009148 -0.091488 0
-0.008808 -0.088089 0
+0.029506 +0.295080 0
+0.037643 +0.376452 0
+0.017452 +0.174525 0
-0.003167 -0.031669 0
-0.010959 -0.109598 0
-0.004555 -0.045554 0
+0.051829 +0.518319 0
+0.078971 +0.789752 0
+0.087642 +0.876466 0
+0.075965 +0.759694 0
+0.046142 +0.461446 0
+0.033111 +0.331131 0
+0.067426 +0.674301 0
+0.085880 +0.858845 0
+0.084316 +0.843202 0
+0.063338 +0.633412 0
+0.023484 +0.234852 0
+0.038367 +0.383686 0
+0.056757 +0.567597 0
+0.062087 +0.620899 0
+0.052454 +0.524567 0
+0.029930 +0.299312 0
+0.025883 +0.258848 0
+0.048929 +0.489320 0
+0.061272 +0.612757 0
+0.059112 +0.591155 0
+0.042540 +0.425419 0
+0.015465 +0.154656 0
+0.000000 +0.000000 0
+0.000000 +0.000000 0
+0.000000 +0.000000 0
+0.000000 +0.000000 0
+0.000000 +0.000000 0
+0.000000 +0.000000 0
+0.000000 +0.000000 0
+0.000000 +0.000000 0
+0.000000 +0.000000 0
+0.000000 +0.000000 0
+0.000000 +0.000000 0
-0.038168 -0.381704 0
-0.078272 -0.782762 0
-0.101700 -1.017058 0
-0.094250 -0.942555 0
-0.052688 -0.526911 0
-0.017694 -0.176952 0
-0.059151 -0.591540 0
-0.093166 -0.931715 0
-0.102385 -1.023903 0
-0.077406 -0.774100 0
-0.021926 -0.219275 0
-0.058095 -0.580977 0
-0.107373 -1.073785 0
-0.018381 -0.183820 0
-0.053013 -0.530161 0
-0.025567 -0.255682 0
-0.077093 -0.770976 0
-0.038985 -0.389876 0
-0.088522 -0.885266 0
-0.103205 -1.032107 0
-0.101091 -1.010963 0
-0.109366 -1.093720 0
-0.085275 -0.852793 0
-0.006382 -0.063826 0
-0.037422 -0.374237 0
-0.015087 -0.150879 0
-0.034874 -0.348758 0
-0.086340 -0.863446 0
-0.063193 -0.631967 0
-0.068808 -0.688119 0
-0.100512 -1.005171 0
-0.005329 -0.053290 0
-0.001428 -0.014279 0
-0.020726 -0.207270 0
-0.011970 -0.119703 0
-0.030124 -0.301261 0
-0.017260 -0.172614 0
-0.047207 -0.472100 0
-0.011826 -0.118263 0
-0.031450 -0.314522 0
-0.041424 -0.414267 0
-0.068027 -0.680304 0
-0.058961 -0.589644 0
-0.085427 -0.854315 0
-0.091795 -0.918002 0
-0.098397 -0.984025 0
-0.074097 -0.741006 0
-0.097121 -0.971267 0
-0.099874 -0.998797 0
-0.109214 -1.092197 0
-0.104936 -1.049415 0
-0.088916 -0.889205 0
-0.096552 -0.965574 0
-0.060957 -0.609605 0
-0.110673 -1.106789 0
-0.101688 -1.016931 0
-0.103832 -1.038372 0
-0.070376 -0.703796 0
-0.006427 -0.064274 0
-0.020243 -0.202443 0
-0.002494 -0.024937 0
-0.010315 -0.103153 0
-0.011695 -0.116959 0
-0.027391 -0.273928 0
-0.025477 -0.254783 0
-0.047735 -0.477372 0
-0.050180 -0.501832 0
-0.076751 -0.767550 0
-0.026179 -0.261807 0
-0.048840 -0.488429 0
-0.043933 -0.439356 0
-0.070338 -0.703416 0
-0.075482 -0.754856 0
-0.099263 -0.992688 0
-0.094872 -0.948776 0
-0.108664 -1.086696 0
-0.061441 -0.614442 0
-0.086587 -0.865914 0
-0.074537 -0.745412 0
-0.102880 -1.028852 0
-0.000477 -0.004775 0
-0.003406 -0.034058 0
-0.000386 -0.003856 0
-0.001762 -0.017625 0
-0.003035 -0.030354 0
-0.010897 -0.108973 0
-0.008307 -0.083072 0
-0.022268 -0.222690 0
-0.004488 -0.044885 0
-0.008473 -0.084732 0
-0.016124 -0.161247 0
-0.035950 -0.359517 0
-0.025418 -0.254194 0
-0.049277 -0.492794 0
-0.013174 -0.131745 0
-0.034404 -0.344057 0
-0.069832 -0.698361 0
-0.032402 -0.324035 0
-0.032729 -0.327309 0
+0.016375 +0.163760 0
-0.043007 -0.430090 0
-0.078770 -0.787738 0
-0.042901 -0.429030 0
-0.028929 -0.289303 0
-0.053172 -0.531752 0
-0.038172 -0.381736 0
-0.012624 -0.126246 0
-0.015386 -0.153865 0
-0.066741 -0.667448 0
-0.066271 -0.662749 0
-0.089443 -0.894475 0
-0.014386 -0.143868 0
-0.002406 -0.024062 0
-0.039297 -0.392988 0
+0.017732 +0.177330 0
+0.000562 +0.005618 0
+0.021659 +0.216605 0
-0.013821 -0.138214 0
+0.049553 +0.495557 0
+0.044841 +0.448433 0
+0.033896 +0.338976 0
-0.021009 -0.210101 0
-0.041027 -0.410296 0
-0.022266 -0.222674 0
-0.043579 -0.435816 0
-0.059588 -0.595908 0
-0.075467 -0.754707 0
-0.062998 -0.630010 0
-0.079749 -0.797537 0
-0.021034 -0.210348 0
-0.041218 -0.412204 0
-0.017358 -0.173585 0
-0.034123 -0.341249 0
-0.033781 -0.337831 0
-0.043087 -0.430897 0
-0.049311 -0.493139 0
-0.062347 -0.623505 0
-0.011321 -0.113213 0
-0.022785 -0.227867 0
-0.008171 -0.081711 0
-0.004857 -0.048569 0
-0.015782 -0.157831 0
-0.021981 -0.219821 0
-0.088115 -0.881193 0
-0.097192 -0.971977 0
-0.072423 -0.724267 0
-0.079147 -0.791516 0
-0.053184 -0.531868 0
-0.049688 -0.496907 0
-0.082143 -0.821475 0
-0.081519 -0.815232 0
-0.049721 -0.497240 0
-0.053215 -0.532176 0
-0.025605 -0.256059 0
-0.026044 -0.260455 0
+0.000044 +0.000437 0
+0.008902 +0.089022 0
-0.023036 -0.230377 0
-0.016607 -0.166079 0
-0.006840 -0.068406 0
-0.005237 -0.052375 0
+0.002469 +0.024696 0
+0.011178 +0.111790 0
+0.009025 +0.090256 0
+0.019515 +0.195158 0
-0.042920 -0.429224 0
-0.033449 -0.334510 0
-0.007073 -0.070733 0
+0.004964 +0.049638 0
+0.051173 +0.511761 0
+0.018688 +0.186889 0
+0.020878 +0.208789 0
+0.035299 +0.353006 0
+0.033354 +0.333556 0
+0.049797 +0.497993 0
+0.064009 +0.640121 0
+0.067697 +0.677008 0
+0.026187 +0.261886 0
+0.044189 +0.441915 0
+0.019151 +0.191522 0
+0.040670 +0.406724 0
-0.051148 -0.511511 0
-0.061320 -0.613238 0
-0.060960 -0.609635 0
-0.063262 -0.632653 0
-0.026726 -0.267275 0
-0.016524 -0.165245 0
-0.001441 -0.014413 0
-0.065464 -0.654675 0
-0.036762 -0.367642 0
-0.032498 -0.324999 0
-0.037109 -0.371115 0
-0.023999 -0.240007 0
-0.034672 -0.346740 0
-0.066956 -0.669592 0
-0.037442 -0.374443 0
-0.071754 -0.717584 0
-0.071896 -0.719001 0
-0.080307 -0.803117 0
-0.036978 -0.369798 0
-0.042428 -0.424307 0
-0.035987 -0.359890 0
-0.020577 -0.205778 0
-0.036893 -0.368949 0
-0.042086 -0.420880 0
-0.021483 -0.214846 0
-0.000200 -0.001997 0
+0.015729 +0.157303 0
-0.013377 -0.133780 0
-0.016101 -0.161015 0
-0.039657 -0.396595 0
-0.035802 -0.358039 0
-0.007889 -0.078890 0
+0.005784 +0.057841 0
-0.025245 -0.252467 0
-0.012852 -0.128526 0
-0.060239 -0.602419 0
-0.050644 -0.506464 0
-0.066036 -0.660394 0
-0.050214 -0.502170 0
-0.036653 -0.366549 0
-0.022389 -0.223902 0
-0.032328 -0.323293 0
-0.016313 -0.163141 0
-0.051486 -0.514892 0
-0.031225 -0.312270 0
-0.019438 -0.194393 0
-0.012810 -0.128111 0
-0.019248 -0.192490 0
-0.033885 -0.338872 0
-0.017891 -0.178922 0
-0.037722 -0.377244 0
-0.049410 -0.494124 0
-0.066707 -0.667109 0
-0.053799 -0.538019 0
-0.061805 -0.618082 0
-0.076179 -0.761830 0
-0.075709 -0.757133 0
-0.068698 -0.687016 0
-0.079048 -0.790519 0
-0.070018 -0.700214 0
-0.070089 -0.700930 0
-0.079008 -0.790121 0
-0.068876 -0.688800 0
-0.059482 -0.594851 0
-0.041031 -0.410335 0
-0.052054 -0.520569 0
-0.041118 -0.411205 0
-0.019216 -0.192171 0
-0.022100 -0.221010 0
-0.010634 -0.106348 0
-0.028821 -0.288231 0
-0.010725 -0.107259 0
-0.018737 -0.187384 0
-0.029253 -0.292548 0
-0.050498 -0.505008 0
-0.040424 -0.404260 0
-0.059191 -0.591938 0
-0.021883 -0.218845 0
-0.019160 -0.191610 0
-0.040943 -0.409453 0
-0.051994 -0.519972 0
-0.030292 -0.302939 0
-0.030319 -0.303209 0
-0.011148 -0.111487 0
-0.011154 -0.111545 0
+0.110126 +1.101324 0
+0.136947 +1.369542 0
+0.065321 +0.653245 0
+0.108654 +1.086600 0
+0.071196 +0.711999 0
+0.100033 +1.000383 0
+0.068805 +0.688088 0
+0.136317 +1.363246 0
+0.115299 +1.153051 0
+0.120071 +1.200771 0
+0.107803 +1.078093 0
+0.085548 +0.855524 0
+0.025289 +0.252906 0
+0.096838 +0.968437 0
+0.052347 +0.523502 0
+0.097381 +0.973863 0
+0.135653 +1.356600 0
+0.128792 +1.287994 0
+0.091856 +0.918611 0
+0.111000 +1.110057 0
+0.028554 +0.285553 0
+0.005335 +0.053357 0
+0.060067 +0.600707 0
+0.050063 +0.500656 0
+0.052470 +0.524730 0
+0.052066 +0.520686 0
+0.055440 +0.554429 0
+0.050784 +0.507871 0
+0.073362 +0.733657 0
+0.091683 +0.916882 0
+0.107812 +1.078180 0
+0.084399 +0.844039 0
+0.089427 +0.894323 0
+0.112766 +1.127720 0
+0.105258 +1.052641 0
+0.125604 +1.256107 0
+0.130770 +1.307771 0
+0.140402 +1.404093 0
+0.128620 +1.286267 0
+0.120998 +1.210049 0
+0.098328 +0.983335 0
+0.103251 +1.032564 0
+0.069541 +0.695445 0
+0.125905 +1.259121 0
+0.098678 +0.986838 0
+0.084125 +0.841296 0
+0.063408 +0.634119 0
+0.028642 +0.286437 0
+0.063883 +0.638869 0
+0.006425 +0.064257 0
+0.038731 +0.387327 0
+0.045472 +0.454746 0
+0.082677 +0.826811 0
+0.075414 +0.754177 0
+0.106348 +1.063537 0
+0.115206 +1.152126 0
+0.135755 +1.357619 0
+0.083224 +0.832287 0
+0.115784 +1.157899 0
+0.106360 +1.063653 0
+0.125327 +1.253334 0
+0.136084 +1.360909 0
+0.139542 +1.395498 0
+0.127197 +1.272043 0
+0.112141 +1.121472 0
+0.103836 +1.038419 0
+0.104270 +1.042755 0
+0.074131 +0.741348 0
+0.088623 +0.886282 0
-0.003787 -0.037871 0
+0.013676 +0.136772 0
+0.000526 +0.005259 0
+0.012456 +0.124568 0
+0.016424 +0.164251 0
+0.046681 +0.466836 0
+0.040174 +0.401765 0
+0.074990 +0.749942 0
+0.024475 +0.244761 0
+0.030745 +0.307466 0
+0.057105 +0.571076 0
+0.086618 +0.866226 0
+0.058642 +0.586452 0
+0.074422 +0.744264 0
+0.027356 +0.273577 0
+0.042547 +0.425492 0
-0.042144 -0.421465 0
-0.046052 -0.460541 0
-0.022712 -0.227133 0
-0.019837 -0.198383 0
+0.000516 +0.005160 0
-0.054265 -0.542680 0
-0.013126 -0.131267 0
-0.058054 -0.580568 0
-0.063714 -0.637175 0
-0.073246 -0.732501 0
-0.020144 -0.201453 0
-0.032729 -0.327308 0
+0.007812 +0.078121 0
-0.031930 -0.319319 0
+0.007501 +0.075018 0
-0.029855 -0.298564 0
-0.032362 -0.323637 0
-0.043989 -0.439918 0
-0.006842 -0.068422 0
-0.013140 -0.131403 0
-0.012547 -0.125480 0
+0.003980 +0.039799 0
-0.008462 -0.084629 0
-0.014823 -0.148238 0
-0.002213 -0.022130 0
+0.012232 +0.122323 0
-0.021597 -0.215982 0
+0.028060 +0.280611 0
-0.005599 -0.055995 0
-0.023586 -0.235876 0
-0.048053 -0.480559 0
-0.035847 -0.358488 0
-0.060662 -0.606656 0
-0.067088 -0.670920 0
-0.080823 -0.808270 0
-0.053911 -0.539138 0
-0.065519 -0.655222 0
-0.054932 -0.549351 0
-0.054212 -0.542149 0
-0.072171 -0.721748 0
-0.076023 -0.760269 0
-0.049832 -0.498348 0
-0.042325 -0.423278 0
-0.033518 -0.335201 0
-0.025082 -0.250837 0
-0.008978 -0.089787 0
-0.013274 -0.132748 0
+0.034111 +0.341125 0
+0.004886 +0.048859 0
+0.029458 +0.294597 0
+0.008345 +0.083450 0
-0.010198 -0.101982 0
-0.027366 -0.273674 0
-0.015229 -0.152298 0
-0.036865 -0.368670 0
-0.041589 -0.415914 0
-0.050971 -0.509742 0
-0.029188 -0.291892 0
-0.037044 -0.370463 0
-0.026123 -0.261243 0
-0.026009 -0.260108 0
-0.040263 -0.402649 0
-0.038876 -0.388776 0
-0.022545 -0.225466 0
-0.016518 -0.165185 0
-0.012926 -0.129268 0
-0.009826 -0.098262 0
-0.002439 -0.024394 0
-0.005336 -0.053366 0
+0.016470 +0.164710 0
+0.006130 +0.061299 0
+0.001668 +0.016679 0
-0.006670 -0.066702 0
-0.006094 -0.060946 0
-0.017926 -0.179274 0
-0.015356 -0.153570 0
-0.022439 -0.224406 0
-0.007221 -0.072209 0
-0.003672 -0.036726 0
-0.012117 -0.121178 0
-0.013894 -0.138951 0
-0.004893 -0.048931 0
-0.004231 -0.042312 0
-0.000785 -0.007855 0
-0.000616 -0.006163 0
