# vtk DataFile Version 2.0
MyTitle
ASCII
DATASET UNSTRUCTURED_GRID
POINTS 849 double
2.000000 0.000000 0.000000
3.000000 1.000000 0.000000
3.000000 2.000000 0.000000
2.000000 2.000000 0.000000
1.000000 2.000000 0.000000
1.000000 3.000000 0.000000
0.000000 2.000000 0.000000
0.500000 1.500000 0.000000
1.000000 1.000000 0.000000
2.000000 1.000000 0.000000
2.125000 0.125000 0.000000
2.250000 0.250000 0.000000
2.375000 0.375000 0.000000
2.500000 0.500000 0.000000
2.625000 0.625000 0.000000
2.750000 0.750000 0.000000
2.875000 0.875000 0.000000
2.062500 0.062500 0.000000
2.187500 0.187500 0.000000
2.312500 0.312500 0.000000
2.437500 0.437500 0.000000
2.562500 0.562500 0.000000
2.687500 0.687500 0.000000
2.812500 0.812500 0.000000
2.937500 0.937500 0.000000
3.000000 1.125000 0.000000
3.000000 1.250000 0.000000
3.000000 1.375000 0.000000
3.000000 1.500000 0.000000
3.000000 1.625000 0.000000
3.000000 1.750000 0.000000
3.000000 1.875000 0.000000
3.000000 1.062500 0.000000
3.000000 1.187500 0.000000
3.000000 1.312500 0.000000
3.000000 1.437500 0.000000
3.000000 1.562500 0.000000
3.000000 1.687500 0.000000
3.000000 1.812500 0.000000
3.000000 1.937500 0.000000
2.875000 2.000000 0.000000
2.750000 2.000000 0.000000
2.625000 2.000000 0.000000
2.500000 2.000000 0.000000
2.375000 2.000000 0.000000
2.250000 2.000000 0.000000
2.125000 2.000000 0.000000
2.937500 2.000000 0.000000
2.812500 2.000000 0.000000
2.687500 2.000000 0.000000
2.562500 2.000000 0.000000
2.437500 2.000000 0.000000
2.312500 2.000000 0.000000
2.187500 2.000000 0.000000
2.062500 2.000000 0.000000
1.875000 2.000000 0.000000
1.750000 2.000000 0.000000
1.625000 2.000000 0.000000
1.500000 2.000000 0.000000
1.375000 2.000000 0.000000
1.250000 2.000000 0.000000
1.125000 2.000000 0.000000
1.937500 2.000000 0.000000
1.812500 2.000000 0.000000
1.687500 2.000000 0.000000
1.562500 2.000000 0.000000
1.437500 2.000000 0.000000
1.312500 2.000000 0.000000
1.187500 2.000000 0.000000
1.062500 2.000000 0.000000
1.000000 2.125000 0.000000
1.000000 2.250000 0.000000
1.000000 2.375000 0.000000
1.000000 2.500000 0.000000
1.000000 2.625000 0.000000
1.000000 2.750000 0.000000
1.000000 2.875000 0.000000
1.000000 2.062500 0.000000
1.000000 2.187500 0.000000
1.000000 2.312500 0.000000
1.000000 2.437500 0.000000
1.000000 2.562500 0.000000
1.000000 2.687500 0.000000
1.000000 2.812500 0.000000
1.000000 2.937500 0.000000
0.875000 2.875000 0.000000
0.750000 2.750000 0.000000
0.625000 2.625000 0.000000
0.500000 2.500000 0.000000
0.375000 2.375000 0.000000
0.250000 2.250000 0.000000
0.125000 2.125000 0.000000
0.937500 2.937500 0.000000
0.812500 2.812500 0.000000
0.687500 2.687500 0.000000
0.562500 2.562500 0.000000
0.437500 2.437500 0.000000
0.312500 2.312500 0.000000
0.187500 2.187500 0.000000
0.062500 2.062500 0.000000
0.062500 1.937500 0.000000
0.125000 1.875000 0.000000
0.187500 1.812500 0.000000
0.250000 1.750000 0.000000
0.312500 1.687500 0.000000
0.375000 1.625000 0.000000
0.437500 1.562500 0.000000
0.031250 1.968750 0.000000
0.093750 1.906250 0.000000
0.156250 1.843750 0.000000
0.218750 1.781250 0.000000
0.281250 1.718750 0.000000
0.343750 1.656250 0.000000
0.406250 1.593750 0.000000
0.468750 1.531250 0.000000
0.562500 1.437500 0.000000
0.625000 1.375000 0.000000
0.687500 1.312500 0.000000
0.750000 1.250000 0.000000
0.812500 1.187500 0.000000
0.875000 1.125000 0.000000
0.937500 1.062500 0.000000
0.531250 1.468750 0.000000
0.593750 1.406250 0.000000
0.656250 1.343750 0.000000
0.718750 1.281250 0.000000
0.781250 1.218750 0.000000
0.843750 1.156250 0.000000
0.906250 1.093750 0.000000
0.968750 1.031250 0.000000
1.125000 1.000000 0.000000
1.250000 1.000000 0.000000
1.375000 1.000000 0.000000
1.500000 1.000000 0.000000
1.625000 1.000000 0.000000
1.750000 1.000000 0.000000
1.875000 1.000000 0.000000
1.062500 1.000000 0.000000
1.187500 1.000000 0.000000
1.312500 1.000000 0.000000
1.437500 1.000000 0.000000
1.562500 1.000000 0.000000
1.687500 1.000000 0.000000
1.812500 1.000000 0.000000
1.937500 1.000000 0.000000
2.000000 0.875000 0.000000
2.000000 0.750000 0.000000
2.000000 0.625000 0.000000
2.000000 0.500000 0.000000
2.000000 0.375000 0.000000
2.000000 0.250000 0.000000
2.000000 0.125000 0.000000
2.000000 0.937500 0.000000
2.000000 0.812500 0.000000
2.000000 0.687500 0.000000
2.000000 0.562500 0.000000
2.000000 0.437500 0.000000
2.000000 0.312500 0.000000
2.000000 0.187500 0.000000
2.000000 0.062500 0.000000
2.125000 1.125000 0.000000
2.250000 1.250000 0.000000
2.375000 1.375000 0.000000
2.500000 1.500000 0.000000
2.625000 1.625000 0.000000
2.750000 1.750000 0.000000
2.875000 1.875000 0.000000
2.062500 1.062500 0.000000
2.187500 1.187500 0.000000
2.312500 1.312500 0.000000
2.437500 1.437500 0.000000
2.562500 1.562500 0.000000
2.687500 1.687500 0.000000
2.812500 1.812500 0.000000
2.937500 1.937500 0.000000
1.125000 1.125000 0.000000
1.250000 1.250000 0.000000
1.375000 1.375000 0.000000
1.500000 1.500000 0.000000
1.625000 1.625000 0.000000
1.750000 1.750000 0.000000
1.875000 1.875000 0.000000
1.062500 1.062500 0.000000
1.187500 1.187500 0.000000
1.312500 1.312500 0.000000
1.437500 1.437500 0.000000
1.562500 1.562500 0.000000
1.687500 1.687500 0.000000
1.812500 1.812500 0.000000
1.937500 1.937500 0.000000
0.562500 1.562500 0.000000
0.625000 1.625000 0.000000
0.687500 1.687500 0.000000
0.750000 1.750000 0.000000
0.812500 1.812500 0.000000
0.875000 1.875000 0.000000
0.937500 1.937500 0.000000
0.531250 1.531250 0.000000
0.593750 1.593750 0.000000
0.656250 1.656250 0.000000
0.718750 1.718750 0.000000
0.781250 1.781250 0.000000
0.843750 1.843750 0.000000
0.906250 1.906250 0.000000
0.968750 1.968750 0.000000
2.250000 1.000000 0.000000
2.500000 1.250000 0.000000
2.750000 1.500000 0.000000
2.250000 0.750000 0.000000
2.500000 1.000000 0.000000
2.750000 1.250000 0.000000
2.250000 0.500000 0.000000
2.500000 0.750000 0.000000
2.750000 1.000000 0.000000
2.125000 0.875000 0.000000
2.250000 1.125000 0.000000
2.125000 1.000000 0.000000
2.375000 1.125000 0.000000
2.500000 1.375000 0.000000
2.375000 1.250000 0.000000
2.625000 1.375000 0.000000
2.750000 1.625000 0.000000
2.625000 1.500000 0.000000
2.875000 1.625000 0.000000
2.875000 1.750000 0.000000
2.125000 0.625000 0.000000
2.250000 0.875000 0.000000
2.125000 0.750000 0.000000
2.375000 0.875000 0.000000
2.500000 1.125000 0.000000
2.375000 1.000000 0.000000
2.625000 1.125000 0.000000
2.750000 1.375000 0.000000
2.625000 1.250000 0.000000
2.875000 1.375000 0.000000
2.875000 1.500000 0.000000
2.125000 0.375000 0.000000
2.250000 0.625000 0.000000
2.125000 0.500000 0.000000
2.375000 0.625000 0.000000
2.500000 0.875000 0.000000
2.375000 0.750000 0.000000
2.625000 0.875000 0.000000
2.750000 1.125000 0.000000
2.625000 1.000000 0.000000
2.875000 1.125000 0.000000
2.875000 1.250000 0.000000
2.250000 0.375000 0.000000
2.125000 0.250000 0.000000
2.500000 0.625000 0.000000
2.375000 0.500000 0.000000
2.750000 0.875000 0.000000
2.625000 0.750000 0.000000
2.875000 1.000000 0.000000
2.062500 0.937500 0.000000
2.125000 1.062500 0.000000
2.062500 0.812500 0.000000
2.125000 0.937500 0.000000
2.187500 0.937500 0.000000
2.250000 1.062500 0.000000
2.187500 1.062500 0.000000
2.250000 1.187500 0.000000
2.312500 1.187500 0.000000
2.375000 1.312500 0.000000
2.312500 1.062500 0.000000
2.375000 1.187500 0.000000
2.437500 1.187500 0.000000
2.500000 1.312500 0.000000
2.437500 1.312500 0.000000
2.500000 1.437500 0.000000
2.562500 1.437500 0.000000
2.625000 1.562500 0.000000
2.562500 1.312500 0.000000
2.625000 1.437500 0.000000
2.687500 1.437500 0.000000
2.750000 1.562500 0.000000
2.687500 1.562500 0.000000
2.750000 1.687500 0.000000
2.812500 1.687500 0.000000
2.875000 1.812500 0.000000
2.812500 1.562500 0.000000
2.875000 1.687500 0.000000
2.937500 1.687500 0.000000
2.937500 1.812500 0.000000
2.062500 0.687500 0.000000
2.125000 0.812500 0.000000
2.062500 0.562500 0.000000
2.125000 0.687500 0.000000
2.187500 0.687500 0.000000
2.250000 0.812500 0.000000
2.187500 0.812500 0.000000
2.250000 0.937500 0.000000
2.312500 0.937500 0.000000
2.375000 1.062500 0.000000
2.312500 0.812500 0.000000
2.375000 0.937500 0.000000
2.437500 0.937500 0.000000
2.500000 1.062500 0.000000
2.437500 1.062500 0.000000
2.500000 1.187500 0.000000
2.562500 1.187500 0.000000
2.625000 1.312500 0.000000
2.562500 1.062500 0.000000
2.625000 1.187500 0.000000
2.687500 1.187500 0.000000
2.750000 1.312500 0.000000
2.687500 1.312500 0.000000
2.750000 1.437500 0.000000
2.812500 1.437500 0.000000
2.875000 1.562500 0.000000
2.812500 1.312500 0.000000
2.875000 1.437500 0.000000
2.937500 1.437500 0.000000
2.937500 1.562500 0.000000
2.062500 0.437500 0.000000
2.125000 0.562500 0.000000
2.062500 0.312500 0.000000
2.125000 0.437500 0.000000
2.187500 0.437500 0.000000
2.250000 0.562500 0.000000
2.187500 0.562500 0.000000
2.250000 0.687500 0.000000
2.312500 0.687500 0.000000
2.375000 0.812500 0.000000
2.312500 0.562500 0.000000
2.375000 0.687500 0.000000
2.437500 0.687500 0.000000
2.500000 0.812500 0.000000
2.437500 0.812500 0.000000
2.500000 0.937500 0.000000
2.562500 0.937500 0.000000
2.625000 1.062500 0.000000
2.562500 0.812500 0.000000
2.625000 0.937500 0.000000
2.687500 0.937500 0.000000
2.750000 1.062500 0.000000
2.687500 1.062500 0.000000
2.750000 1.187500 0.000000
2.812500 1.187500 0.000000
2.875000 1.312500 0.000000
2.812500 1.062500 0.000000
2.875000 1.187500 0.000000
2.937500 1.187500 0.000000
2.937500 1.312500 0.000000
2.062500 0.187500 0.000000
2.125000 0.312500 0.000000
2.125000 0.187500 0.000000
2.250000 0.312500 0.000000
2.187500 0.312500 0.000000
2.250000 0.437500 0.000000
2.312500 0.437500 0.000000
2.375000 0.562500 0.000000
2.375000 0.437500 0.000000
2.500000 0.562500 0.000000
2.437500 0.562500 0.000000
2.500000 0.687500 0.000000
2.562500 0.687500 0.000000
2.625000 0.812500 0.000000
2.625000 0.687500 0.000000
2.750000 0.812500 0.000000
2.687500 0.812500 0.000000
2.750000 0.937500 0.000000
2.812500 0.937500 0.000000
2.875000 1.062500 0.000000
2.875000 0.937500 0.000000
2.937500 1.062500 0.000000
1.500000 1.250000 0.000000
[...]
POINT_DATA 849
VECTORS sol double
+0.000000 +0.000000 0
+0.000000 +0.000000 0
+0.000000 +0.000000 0
+0.000000 +0.000000 0
+0.000000 +0.000000 0
+0.000000 +0.000000 0
+0.000000 +0.000000 0
+0.000000 +0.000000 0
+0.000000 +0.000000 0
+0.000000 +0.000000 0
+0.000000 +0.000000 0
+0.000000 +0.000000 0
+0.000000 +0.000000 0
+0.000000 +0.000000 0
+0.000000 +0.000000 0
+0.000000 +0.000000 0
+0.000000 +0.000000 0
+0.000000 +0.000000 0
+0.000000 +0.000000 0
+0.000000 +0.000000 0
+0.000000 +0.000000 0
+0.000000 +0.000000 0
+0.000000 +0.000000 0
+0.000000 +0.000000 0
+0.000000 +0.000000 0
+0.000000 +0.000000 0
+0.000000 +0.000000 0
+0.000000 +0.000000 0
+0.000000 +0.000000 0
+0.000000 +0.000000 0
+0.000000 +0.000000 0
+0.000000 +0.000000 0
+0.000000 +0.000000 0
+0.000000 +0.000000 0
+0.000000 +0.000000 0
+0.000000 +0.000000 0
+0.000000 +0.000000 0
+0.000000 +0.000000 0
+0.000000 +0.000000 0
+0.000000 +0.000000 0
+0.000000 +0.000000 0
+0.000000 +0.000000 0
+0.000000 +0.000000 0
+0.000000 +0.000000 0
+0.000000 +0.000000 0
+0.000000 +0.000000 0
+0.000000 +0.000000 0
+0.000000 +0.000000 0
+0.000000 +0.000000 0
+0.000000 +0.000000 0
+0.000000 +0.000000 0
+0.000000 +0.000000 0
+0.000000 +0.000000 0
+0.000000 +0.000000 0
+0.000000 +0.000000 0
+0.000000 +0.000000 0
+0.000000 +0.000000 0
+0.000000 +0.000000 0
+0.000000 +0.000000 0
+0.000000 +0.000000 0
+0.000000 +0.000000 0
+0.000000 +0.000000 0
+0.000000 +0.000000 0
+0.000000 +0.000000 0
+0.000000 +0.000000 0
+0.000000 +0.000000 0
+0.000000 +0.000000 0
+0.000000 +0.000000 0
+0.000000 +0.000000 0
+0.000000 +0.000000 0
+0.000000 +0.000000 0
+0.000000 +0.000000 0
+0.000000 +0.000000 0
+0.000000 +0.000000 0
+0.000000 +0.000000 0
+0.000000 +0.000000 0
+0.000000 +0.000000 0
+0.000000 +0.000000 0
+0.000000 +0.000000 0
+0.000000 +0.000000 0
+0.000000 +0.000000 0
+0.000000 +0.000000 0
+0.000000 +0.000000 0
+0.000000 +0.000000 0
+0.000000 +0.000000 0
+0.000000 +0.000000 0
+0.000000 +0.000000 0
+0.000000 +0.000000 0
+0.000000 +0.000000 0
+0.000000 +0.000000 0
+0.000000 +0.000000 0
+0.000000 +0.000000 0
+0.000000 +0.000000 0
+0.000000 +0.000000 0
+0.000000 +0.000000 0
+0.000000 +0.000000 0
+0.000000 +0.000000 0
+0.000000 +0.000000 0
+0.000000 +0.000000 0
+0.000000 +0.000000 0
+0.000000 +0.000000 0
+0.000000 +0.000000 0
+0.000000 +0.000000 0
+0.000000 +0.000000 0
+0.000000 +0.000000 0
+0.000000 +0.000000 0
+0.000000 +0.000000 0
+0.000000 +0.000000 0
+0.000000 +0.000000 0
+0.000000 +0.000000 0
+0.000000 +0.000000 0
+0.000000 +0.000000 0
+0.000000 +0.000000 0
+0.000000 +0.000000 0
+0.000000 +0.000000 0
+0.000000 +0.000000 0
+0.000000 +0.000000 0
+0.000000 +0.000000 0
+0.000000 +0.000000 0
+0.000000 +0.000000 0
+0.000000 +0.000000 0
+0.000000 +0.000000 0
+0.000000 +0.000000 0
+0.000000 +0.000000 0
+0.000000 +0.000000 0
+0.000000 +0.000000 0
+0.000000 +0.000000 0
+0.000000 +0.000000 0
+0.000000 +0.000000 0
+0.000000 +0.000000 0
+0.000000 +0.000000 0
+0.000000 +0.000000 0
+0.000000 +0.000000 0
+0.000000 +0.000000 0
+0.000000 +0.000000 0
+0.000000 +0.000000 0
+0.000000 +0.000000 0
+0.000000 +0.000000 0
+0.000000 +0.000000 0
+0.000000 +0.000000 0
+0.000000 +0.000000 0
+0.000000 +0.000000 0
+0.000000 +0.000000 0
+0.000000 +0.000000 0
+0.000000 +0.000000 0
+0.000000 +0.000000 0
+0.000000 +0.000000 0
+0.000000 +0.000000 0
+0.000000 +0.000000 0
+0.000000 +0.000000 0
+0.000000 +0.000000 0
+0.000000 +0.000000 0
+0.000000 +0.000000 0
+0.000000 +0.000000 0
+0.000000 +0.000000 0
+0.000000 +0.000000 0
+0.000000 +0.000000 0
+0.000000 +0.000000 0
+0.000000 +0.000000 0
+0.000000 +0.000000 0
-0.051085 -0.060144 0
-0.156336 -0.184059 0
-0.264613 -0.311536 0
-0.313561 -0.369164 0
-0.271517 -0.319665 0
-0.160904 -0.189438 0
-0.047508 -0.055933 0
-0.016735 -0.019702 0
-0.099134 -0.116713 0
-0.213867 -0.251791 0
-0.299446 -0.352547 0
-0.303984 -0.357890 0
-0.221729 -0.261048 0
-0.100174 -0.117938 0
-0.012538 -0.014762 0
-0.039954 -0.047039 0
+0.020096 +0.023659 0
+0.209115 +0.246197 0
+0.430011 +0.506265 0
+0.545211 +0.641893 0
+0.474566 +0.558720 0
+0.251198 +0.295742 0
-0.024558 -0.028913 0
-0.027978 -0.032939 0
+0.102778 +0.121004 0
+0.324763 +0.382353 0
+0.508361 +0.598509 0
+0.533810 +0.628470 0
+0.375478 +0.442062 0
+0.119517 +0.140711 0
-0.310106 -0.365097 0
-0.582001 -0.685206 0
-0.781921 -0.920578 0
-0.884130 -1.040912 0
-0.873456 -1.028346 0
-0.741892 -0.873451 0
-0.489275 -0.576038 0
-0.157511 -0.185442 0
-0.453136 -0.533491 0
-0.692855 -0.815719 0
-0.846527 -0.996641 0
-0.893746 -1.052233 0
-0.822657 -0.968539 0
-0.639616 -0.753039 0
-0.265909 -0.313062 0
-0.276439 -0.325460 0
-0.459215 -0.540647 0
-0.308162 -0.362808 0
-0.212677 -0.250391 0
-0.439414 -0.517335 0
-0.377828 -0.444827 0
-0.077361 -0.091080 0
-0.231201 -0.272200 0
-0.277041 -0.326168 0
-0.138396 -0.162938 0
-0.238803 -0.281150 0
-0.120004 -0.141284 0
-0.395075 -0.465133 0
-0.398906 -0.469644 0
-0.346040 -0.407403 0
-0.431145 -0.507599 0
-0.239143 -0.281550 0
-0.359975 -0.423809 0
-0.138615 -0.163196 0
-0.094515 -0.111276 0
-0.085315 -0.100444 0
-0.263573 -0.310313 0
-0.119007 -0.140110 0
-0.343793 -0.404758 0
-0.476217 -0.560665 0
-0.394884 -0.464909 0
-0.460272 -0.541892 0
-0.358552 -0.422133 0
-0.469492 -0.552746 0
-0.202238 -0.238101 0
-0.176438 -0.207726 0
-0.022818 -0.026864 0
-0.143934 -0.169457 0
-0.050475 -0.059425 0
-0.154124 -0.181455 0
-0.351839 -0.414230 0
-0.255783 -0.301141 0
-0.281695 -0.331648 0
-0.353331 -0.415986 0
-0.395862 -0.466060 0
-0.186832 -0.219962 0
-0.208792 -0.245817 0
-0.027257 -0.032090 0
-0.006174 -0.007269 0
-0.104707 -0.123274 0
-0.062939 -0.074100 0
-0.152054 -0.179018 0
-0.139121 -0.163792 0
-0.118377 -0.139369 0
-0.065742 -0.077400 0
-0.095310 -0.112211 0
-0.066551 -0.078353 0
-0.135794 -0.159875 0
-0.208411 -0.245368 0
-0.263938 -0.310742 0
-0.179552 -0.211392 0
-0.201150 -0.236820 0
-0.295921 -0.348397 0
-0.308048 -0.362674 0
-0.340081 -0.400388 0
-0.376002 -0.442678 0
-0.436725 -0.514169 0
-0.433423 -0.510281 0
-0.382483 -0.450308 0
-0.358109 -0.421612 0
-0.391504 -0.460930 0
-0.316991 -0.373203 0
-0.458016 -0.539235 0
-0.398667 -0.469362 0
-0.379571 -0.446880 0
-0.275279 -0.324094 0
-0.306924 -0.361350 0
-0.200651 -0.236233 0
-0.164897 -0.194138 0
-0.071166 -0.083786 0
-0.224510 -0.264323 0
-0.117027 -0.137779 0
-0.060739 -0.071510 0
-0.037058 -0.043630 0
-0.053013 -0.062414 0
-0.131506 -0.154826 0
-0.035300 -0.041559 0
-0.102806 -0.121037 0
-0.145941 -0.171821 0
-0.241774 -0.284648 0
-0.190965 -0.224829 0
-0.276128 -0.325093 0
-0.333211 -0.392299 0
-0.401679 -0.472909 0
-0.280243 -0.329938 0
-0.375198 -0.441732 0
-0.398602 -0.469286 0
-0.464800 -0.547223 0
-0.444366 -0.523165 0
-0.474098 -0.558169 0
-0.485837 -0.571990 0
-0.455510 -0.536285 0
-0.461593 -0.543446 0
-0.471680 -0.555323 0
-0.432639 -0.509358 0
-0.372970 -0.439108 0
-0.426284 -0.501876 0
-0.336443 -0.396104 0
-0.272142 -0.320400 0
-0.158549 -0.186665 0
-0.298679 -0.351644 0
-0.191165 -0.225064 0
-0.098535 -0.116008 0
-0.082032 -0.096579 0
-0.019087 -0.022472 0
-0.067250 -0.079175 0
-0.007591 -0.008938 0
-0.035315 -0.041577 0
-0.046278 -0.054485 0
-0.109206 -0.128571 0
-0.092893 -0.109366 0
-0.179119 -0.210882 0
-0.199578 -0.234969 0
-0.303077 -0.356821 0
-0.114084 -0.134315 0
-0.205015 -0.241370 0
-0.194207 -0.228645 0
-0.294041 -0.346183 0
-0.308057 -0.362685 0
-0.401230 -0.472380 0
-0.382694 -0.450557 0
-0.435123 -0.512283 0
-0.261511 -0.307885 0
-0.344073 -0.405087 0
-0.288349 -0.339482 0
-0.322245 -0.379389 0
-0.387354 -0.456043 0
-0.371961 -0.437920 0
-0.293369 -0.345391 0
-0.208371 -0.245322 0
-0.244228 -0.287536 0
-0.202250 -0.238115 0
-0.102517 -0.120696 0
-0.106823 -0.125766 0
-0.001672 -0.001969 0
-0.013065 -0.015381 0
-0.002069 -0.002436 0
-0.010669 -0.012561 0
-0.014639 -0.017235 0
-0.049564 -0.058353 0
-0.043574 -0.051301 0
-0.105800 -0.124561 0
-0.027115 -0.031923 0
-0.047980 -0.056488 0
-0.083733 -0.098581 0
-0.166739 -0.196307 0
-0.123679 -0.145611 0
-0.212115 -0.249730 0
-0.067025 -0.078911 0
-0.076251 -0.089773 0
-0.149163 -0.175614 0
-0.219585 -0.258524 0
-0.143469 -0.168910 0
-0.160085 -0.188473 0
-0.068598 -0.080763 0
-0.077839 -0.091642 0
+0.322643 +0.379857 0
+0.658726 +0.775537 0
+0.375164 +0.441692 0
+0.451068 +0.531055 0
+0.475766 +0.560133 0
+0.096383 +0.113474 0
+0.262906 +0.309527 0
+0.034717 +0.040874 0
-0.137290 -0.161636 0
+0.102499 +0.120675 0
+0.177639 +0.209140 0
+0.022171 +0.026103 0
+0.550413 +0.648017 0
+0.593521 +0.698770 0
+0.410888 +0.483751 0
+0.586647 +0.690676 0
+0.458435 +0.539729 0
+0.615409 +0.724539 0
+0.139773 +0.164559 0
+0.208191 +0.245110 0
+0.228372 +0.268869 0
+0.421853 +0.496660 0
+0.177628 +0.209127 0
+0.546619 +0.643550 0
+0.616046 +0.725289 0
+0.599586 +0.705910 0
+0.290827 +0.342400 0
+0.245010 +0.288457 0
+0.469494 +0.552749 0
-0.011749 -0.013832 0
+0.061022 +0.071843 0
+0.203955 +0.240122 0
+0.397616 +0.468125 0
+0.240467 +0.283108 0
+0.183353 +0.215866 0
+0.267376 +0.314789 0
+0.398823 +0.469546 0
-0.094090 -0.110775 0
-0.039934 -0.047016 0
+0.088976 +0.104754 0
-0.088098 -0.103720 0
-0.064440 -0.075867 0
+0.065396 +0.076993 0
+0.105330 +0.124009 0
-0.173091 -0.203785 0
-0.055090 -0.064859 0
-0.178929 -0.210659 0
-0.221897 -0.261246 0
-0.080854 -0.095192 0
-0.004739 -0.005579 0
-0.013565 -0.015970 0
+0.032379 +0.038121 0
+0.061071 +0.071901 0
+0.203259 +0.239303 0
+0.253858 +0.298874 0
+0.084083 +0.098993 0
+0.097856 +0.115208 0
+0.291847 +0.343600 0
+0.315467 +0.371408 0
+0.444292 +0.523078 0
+0.490714 +0.577732 0
+0.625707 +0.736664 0
+0.639820 +0.753279 0
+0.517016 +0.608698 0
+0.523018 +0.615764 0
+0.628449 +0.739892 0
+0.592999 +0.698155 0
+0.645113 +0.759510 0
+0.613414 +0.722191 0
+0.492155 +0.579428 0
+0.424208 +0.499433 0
+0.556043 +0.654646 0
+0.475915 +0.560309 0
+0.336698 +0.396405 0
+0.233513 +0.274921 0
+0.252086 +0.296789 0
+0.175983 +0.207190 0
+0.052243 +0.061508 0
+0.090553 +0.106611 0
+0.072863 +0.085784 0
+0.141620 +0.166734 0
+0.105618 +0.124347 0
+0.206836 +0.243514 0
+0.349368 +0.411322 0
+0.446516 +0.525697 0
+0.299597 +0.352725 0
+0.379803 +0.447154 0
+0.526883 +0.620314 0
+0.587769 +0.691998 0
+0.519663 +0.611814 0
+0.586263 +0.690225 0
+0.530696 +0.624804 0
+0.556925 +0.655684 0
+0.630612 +0.742437 0
+0.651048 +0.766498 0
+0.559458 +0.658667 0
+0.537912 +0.633300 0
+0.391579 +0.461018 0
+0.385616 +0.453997 0
+0.187779 +0.221078 0
+0.170836 +0.201130 0
+0.359510 +0.423262 0
+0.314192 +0.369908 0
+0.141141 +0.166169 0
+0.100291 +0.118075 0
+0.027467 +0.032338 0
+0.022568 +0.026571 0
-0.019835 -0.023353 0
+0.012807 +0.015078 0
+0.121875 +0.143487 0
+0.239913 +0.282457 0
+0.115241 +0.135677 0
+0.229130 +0.269762 0
+0.253180 +0.298076 0
+0.340337 +0.400689 0
+0.336742 +0.396456 0
+0.435386 +0.512593 0
+0.418470 +0.492677 0
+0.483667 +0.569435 0
+0.237231 +0.279299 0
+0.297255 +0.349967 0
+0.112084 +0.131960 0
+0.150894 +0.177652 0
+0.345254 +0.406478 0
+0.377674 +0.444646 0
+0.177559 +0.209046 0
+0.189981 +0.223671 0
-0.037447 -0.044088 0
-0.007681 -0.009043 0
-0.128515 -0.151304 0
-0.095094 -0.111957 0
+0.013306 +0.015665 0
+0.024563 +0.028919 0
-0.066052 -0.077764 0
-0.041567 -0.048938 0
-0.122101 -0.143753 0
-0.080298 -0.094537 0
-0.043927 -0.051717 0
-0.039686 -0.046723 0
+0.078927 +0.092923 0
+0.163857 +0.192913 0
+0.037158 +0.043747 0
-0.046621 -0.054888 0
+0.100549 +0.118379 0
+0.170023 +0.200173 0
+0.009671 +0.011385 0
+0.063800 +0.075114 0
-0.166728 -0.196294 0
-0.254195 -0.299271 0
-0.119361 -0.140527 0
-0.075491 -0.088878 0
-0.209121 -0.246204 0
-0.166999 -0.196613 0
-0.257428 -0.303078 0
-0.177082 -0.208484 0
-0.210920 -0.248322 0
-0.165834 -0.195241 0
-0.132517 -0.156016 0
-0.088115 -0.103741 0
-0.066589 -0.078397 0
-0.033356 -0.039271 0
-0.582727 -0.686061 0
-0.719994 -0.847670 0
-0.347829 -0.409509 0
-0.449022 -0.528647 0
-0.385266 -0.453585 0
-0.023705 -0.027909 0
-0.217835 -0.256464 0
+0.041545 +0.048913 0
+0.287151 +0.338071 0
-0.324254 -0.381754 0
-0.599621 -0.705952 0
-0.325903 -0.383695 0
-0.723584 -0.851897 0
-0.828937 -0.975931 0
-0.777134 -0.914943 0
-0.578783 -0.681418 0
-0.528157 -0.621814 0
-0.744679 -0.876732 0
-0.122220 -0.143894 0
-0.242571 -0.285586 0
-0.267872 -0.315374 0
-0.531587 -0.625853 0
-0.304585 -0.358597 0
-0.488401 -0.575009 0
-0.569400 -0.670371 0
-0.625356 -0.736250 0
-0.198231 -0.233383 0
-0.186172 -0.219186 0
-0.396182 -0.466436 0
+0.052937 +0.062324 0
-0.035499 -0.041794 0
-0.157217 -0.185096 0
-0.341153 -0.401649 0
-0.217063 -0.255554 0
-0.138144 -0.162640 0
-0.176873 -0.208238 0
-0.321634 -0.378669 0
+0.218316 +0.257030 0
+0.138442 +0.162992 0
+0.011181 +0.013164 0
+0.202217 +0.238076 0
+0.135377 +0.159383 0
-0.092349 -0.108725 0
-0.095212 -0.112096 0
+0.250958 +0.295460 0
+0.045115 +0.053115 0
+0.404663 +0.476422 0
+0.403410 +0.474947 0
+0.243224 +0.286354 0
-0.166312 -0.195804 0
-0.320083 -0.376843 0
-0.166421 -0.195933 0
-0.327335 -0.385382 0
-0.465473 -0.548016 0
-0.595575 -0.701188 0
-0.472325 -0.556082 0
-0.595048 -0.700567 0
-0.702686 -0.827293 0
-0.785810 -0.925157 0
-0.670304 -0.789168 0
-0.756325 -0.890443 0
-0.740431 -0.871731 0
-0.780731 -0.919177 0
-0.819988 -0.965396 0
-0.864322 -1.017592 0
-0.804064 -0.946648 0
-0.815696 -0.960343 0
-0.664903 -0.782810 0
-0.664269 -0.782064 0
-0.468882 -0.552028 0
-0.434292 -0.511305 0
-0.652215 -0.767871 0
-0.640241 -0.753774 0
-0.387259 -0.455931 0
-0.325097 -0.382746 0
-0.227437 -0.267768 0
-0.173232 -0.203951 0
-0.048000 -0.056511 0
-0.094689 -0.111481 0
-0.157427 -0.185343 0
-0.316674 -0.372829 0
-0.139766 -0.164551 0
-0.288249 -0.339364 0
-0.373837 -0.440129 0
-0.494002 -0.581603 0
-0.432055 -0.508671 0
-0.561399 -0.660952 0
-0.597296 -0.703214 0
-0.679858 -0.800417 0
-0.487951 -0.574479 0
-0.561370 -0.660918 0
-0.452279 -0.532482 0
-0.481115 -0.566431 0
-0.615322 -0.724436 0
-0.649569 -0.764757 0
-0.493380 -0.580871 0
-0.489393 -0.576177 0
-0.296542 -0.349127 0
-0.299101 -0.352140 0
-0.103151 -0.121442 0
-0.105351 -0.124032 0
-0.289323 -0.340628 0
-0.265806 -0.312941 0
-0.098102 -0.115498 0
-0.078934 -0.092931 0
+0.030169 +0.035519 0
+0.009036 +0.010638 0
+0.042322 +0.049827 0
-0.001933 -0.002276 0
-0.114888 -0.135260 0
-0.243986 -0.287252 0
-0.085301 -0.100427 0
-0.187893 -0.221212 0
-0.204124 -0.240321 0
-0.280697 -0.330473 0
-0.295336 -0.347707 0
-0.397779 -0.468317 0
-0.349927 -0.411979 0
-0.408117 -0.480488 0
-0.194936 -0.229503 0
-0.231058 -0.272032 0
-0.055194 -0.064982 0
-0.067860 -0.079893 0
-0.260920 -0.307188 0
-0.283405 -0.333661 0
-0.081559 -0.096021 0
-0.094270 -0.110987 0
+0.137661 +0.162072 0
+0.116213 +0.136821 0
+0.270965 +0.319015 0
+0.215681 +0.253928 0
+0.088152 +0.103784 0
+0.058098 +0.068400 0
+0.155018 +0.182507 0
+0.095640 +0.112599 0
+0.263474 +0.310196 0
+0.171673 +0.202115 0
+0.110705 +0.130336 0
+0.081745 +0.096241 0
-0.054314 -0.063946 0
-0.126007 -0.148351 0
-0.066275 -0.078027 0
-0.033411 -0.039336 0
-0.110703 -0.130334 0
-0.154409 -0.181791 0
-0.038320 -0.045115 0
-0.045383 -0.053430 0
+0.130590 +0.153747 0
+0.345550 +0.406826 0
+0.146691 +0.172703 0
+0.148668 +0.175031 0
+0.341443 +0.401991 0
+0.315034 +0.370898 0
+0.481070 +0.566378 0
+0.446635 +0.525836 0
+0.425996 +0.501537 0
+0.351083 +0.413340 0
+0.341009 +0.401480 0
+0.226743 +0.266951 0
+0.251779 +0.296427 0
+0.124219 +0.146246 0
-0.416866 -0.490789 0
-0.413290 -0.486578 0
-0.142809 -0.168133 0
-0.661121 -0.778357 0
-0.763532 -0.898929 0
-0.358328 -0.421870 0
-0.700618 -0.824858 0
-0.925583 -1.089716 0
-0.543683 -0.640094 0
-0.244558 -0.287925 0
-0.224020 -0.263745 0
-0.134224 -0.158026 0
-0.472719 -0.556546 0
-0.201797 -0.237582 0
-0.244669 -0.288056 0
-0.282551 -0.332656 0
-0.055436 -0.065266 0
-0.126318 -0.148718 0
-0.042972 -0.050592 0
-0.012773 -0.015039 0
-0.374349 -0.440732 0
-0.564905 -0.665080 0
-0.325304 -0.382990 0
-0.797312 -0.938699 0
-0.607372 -0.715077 0
-0.661733 -0.779078 0
-0.592424 -0.697479 0
-0.249280 -0.293484 0
-0.445124 -0.524057 0
-0.142938 -0.168285 0
-0.088687 -0.104413 0
-0.384563 -0.452757 0
-0.704838 -0.829826 0
-0.392845 -0.462508 0
-0.892143 -1.050346 0
-0.870502 -1.024868 0
-0.873626 -1.028546 0
-0.797786 -0.939257 0
-0.457004 -0.538044 0
-0.710707 -0.836736 0
-0.245636 -0.289195 0
-0.197591 -0.232629 0
-0.656486 -0.772900 0
-0.354955 -0.417899 0
-0.930136 -1.095076 0
-0.858885 -1.011191 0
-0.635136 -0.747764 0
-0.856147 -1.007967 0
-0.316542 -0.372674 0
-0.070229 -0.082682 0
-0.069828 -0.082210 0
-0.127222 -0.149783 0
-0.192987 -0.227209 0
-0.343620 -0.404554 0
-0.325572 -0.383306 0
-0.187084 -0.220259 0
-0.115091 -0.135500 0
-0.243593 -0.286790 0
-0.122868 -0.144656 0
-0.460604 -0.542283 0
-0.362481 -0.426760 0
-0.455558 -0.536342 0
-0.308098 -0.362732 0
-0.229758 -0.270500 0
-0.097721 -0.115050 0
-0.165623 -0.194992 0
-0.057785 -0.068032 0
-0.352943 -0.415530 0
-0.201976 -0.237792 0
-0.210029 -0.247274 0
-0.095607 -0.112561 0
-0.088185 -0.103823 0
-0.023027 -0.027111 0
-0.029845 -0.035137 0
-0.004455 -0.005246 0
-0.085920 -0.101156 0
-0.025596 -0.030135 0
-0.014652 -0.017251 0
-0.003463 -0.004078 0
-0.168428 -0.198295 0
-0.288982 -0.340226 0
-0.192999 -0.227224 0
-0.353896 -0.416652 0
-0.533584 -0.628204 0
-0.619852 -0.729770 0
-0.460507 -0.542169 0
-0.497288 -0.585472 0
-0.633137 -0.745411 0
-0.573373 -0.675049 0
-0.750586 -0.883686 0
-0.736937 -0.867618 0
-0.800939 -0.942969 0
-0.691206 -0.813776 0
-0.651926 -0.767532 0
-0.514024 -0.605175 0
-0.535394 -0.630335 0
-0.364426 -0.429050 0
-0.691131 -0.813689 0
-0.521734 -0.614252 0
-0.477757 -0.562478 0
-0.304372 -0.358346 0
-0.346470 -0.407909 0
-0.194530 -0.229026 0
-0.161268 -0.189865 0
-0.064077 -0.075440 0
-0.244092 -0.287377 0
-0.115111 -0.135523 0
-0.060426 -0.071141 0
-0.034494 -0.040611 0
-0.201736 -0.237509 0
-0.387308 -0.455989 0
-0.196735 -0.231622 0
-0.391784 -0.461259 0
-0.555144 -0.653587 0
-0.708380 -0.833996 0
-0.563571 -0.663509 0
-0.689501 -0.811770 0
-0.809988 -0.953623 0
-0.843104 -0.992611 0
-0.814762 -0.959244 0
-0.889951 -1.047765 0
-0.929758 -1.094631 0
-0.904676 -1.065102 0
-0.893822 -1.052323 0
-0.823604 -0.969653 0
-0.807333 -0.950497 0
-0.655584 -0.771838 0
-0.880917 -1.037129 0
-0.757981 -0.892393 0
-0.681890 -0.802809 0
-0.500729 -0.589523 0
-0.590020 -0.694648 0
-0.409404 -0.482003 0
-0.322493 -0.379680 0
-0.170598 -0.200849 0
-0.393638 -0.463442 0
-0.222343 -0.261770 0
-0.114820 -0.135181 0
-0.088112 -0.103737 0
-0.180910 -0.212990 0
-0.372066 -0.438044 0
-0.334036 -0.393270 0
-0.622401 -0.732771 0
-0.515523 -0.606940 0
-0.683018 -0.804137 0
-0.772474 -0.909456 0
-0.881588 -1.037919 0
-0.825290 -0.971638 0
-0.913619 -1.075631 0
-0.912300 -1.074078 0
-0.934485 -1.100197 0
-0.911757 -1.073439 0
-0.830696 -0.978003 0
-0.870971 -1.025420 0
-0.695295 -0.818591 0
-0.763726 -0.899157 0
-0.587655 -0.691863 0
-0.482532 -0.568099 0
-0.274034 -0.322628 0
-0.369173 -0.434638 0
-0.139390 -0.164108 0
