# vtk DataFile Version 2.0
MyTitle
ASCII
DATASET UNSTRUCTURED_GRID
POINTS 849 double
2.000000 0.000000 0.000000
3.000000 1.000000 0.000000
3.000000 2.000000 0.000000
2.000000 2.000000 0.000000
1.000000 2.000000 0.000000
1.000000 3.000000 0.000000
0.000000 2.000000 0.000000
0.500000 1.500000 0.000000
1.000000 1.000000 0.000000
2.000000 1.000000 0.000000
2.125000 0.125000 0.000000
2.250000 0.250000 0.000000
2.375000 0.375000 0.000000
2.500000 0.500000 0.000000
2.625000 0.625000 0.000000
2.750000 0.750000 0.000000
2.875000 0.875000 0.000000
2.062500 0.062500 0.000000
2.187500 0.187500 0.000000
2.312500 0.312500 0.000000
2.437500 0.437500 0.000000
2.562500 0.562500 0.000000
2.687500 0.687500 0.000000
2.812500 0.812500 0.000000
2.937500 0.937500 0.000000
3.000000 1.125000 0.000000
3.000000 1.250000 0.000000
3.000000 1.375000 0.000000
3.000000 1.500000 0.000000
3.000000 1.625000 0.000000
3.000000 1.750000 0.000000
3.000000 1.875000 0.000000
3.000000 1.062500 0.000000
3.000000 1.187500 0.000000
3.000000 1.312500 0.000000
3.000000 1.437500 0.000000
3.000000 1.562500 0.000000
3.000000 1.687500 0.000000
3.000000 1.812500 0.000000
3.000000 1.937500 0.000000
2.875000 2.000000 0.000000
2.750000 2.000000 0.000000
2.625000 2.000000 0.000000
2.500000 2.000000 0.000000
2.375000 2.000000 0.000000
2.250000 2.000000 0.000000
2.125000 2.000000 0.000000
2.937500 2.000000 0.000000
2.812500 2.000000 0.000000
2.687500 2.000000 0.000000
2.562500 2.000000 0.000000
2.437500 2.000000 0.000000
2.312500 2.000000 0.000000
2.187500 2.000000 0.000000
2.062500 2.000000 0.000000
1.875000 2.000000 0.000000
1.750000 2.000000 0.000000
1.625000 2.000000 0.000000
1.500000 2.000000 0.000000
1.375000 2.000000 0.000000
1.250000 2.000000 0.000000
1.125000 2.000000 0.000000
1.937500 2.000000 0.000000
1.812500 2.000000 0.000000
1.687500 2.000000 0.000000
1.562500 2.000000 0.000000
1.437500 2.000000 0.000000
1.312500 2.000000 0.000000
1.187500 2.000000 0.000000
1.062500 2.000000 0.000000
1.000000 2.125000 0.000000
1.000000 2.250000 0.000000
1.000000 2.375000 0.000000
1.000000 2.500000 0.000000
1.000000 2.625000 0.000000
1.000000 2.750000 0.000000
1.000000 2.875000 0.000000
1.000000 2.062500 0.000000
1.000000 2.187500 0.000000
1.000000 2.312500 0.000000
1.000000 2.437500 0.000000
1.000000 2.562500 0.000000
1.000000 2.687500 0.000000
1.000000 2.812500 0.000000
1.000000 2.937500 0.000000
0.875000 2.875000 0.000000
0.750000 2.750000 0.000000
0.625000 2.625000 0.000000
0.500000 2.500000 0.000000
0.375000 2.375000 0.000000
0.250000 2.250000 0.000000
0.125000 2.125000 0.000000
0.937500 2.937500 0.000000
0.812500 2.812500 0.000000
0.687500 2.687500 0.000000
0.562500 2.562500 0.000000
0.437500 2.437500 0.000000
0.312500 2.312500 0.000000
0.187500 2.187500 0.000000
0.062500 2.062500 0.000000
0.062500 1.937500 0.000000
0.125000 1.875000 0.000000
0.187500 1.812500 0.000000
0.250000 1.750000 0.000000
0.312500 1.687500 0.000000
0.375000 1.625000 0.000000
0.437500 1.562500 0.000000
0.031250 1.968750 0.000000
0.093750 1.906250 0.000000
0.156250 1.843750 0.000000
0.218750 1.781250 0.000000
0.281250 1.718750 0.000000
0.343750 1.656250 0.000000
0.406250 1.593750 0.000000
0.468750 1.531250 0.000000
0.562500 1.437500 0.000000
0.625000 1.375000 0.000000
0.687500 1.312500 0.000000
0.750000 1.250000 0.000000
0.812500 1.187500 0.000000
0.875000 1.125000 0.000000
0.937500 1.062500 0.000000
0.531250 1.468750 0.000000
0.593750 1.406250 0.000000
0.656250 1.343750 0.000000
0.718750 1.281250 0.000000
0.781250 1.218750 0.000000
0.843750 1.156250 0.000000
0.906250 1.093750 0.000000
0.968750 1.031250 0.000000
1.125000 1.000000 0.000000
1.250000 1.000000 0.000000
1.375000 1.000000 0.000000
1.500000 1.000000 0.000000
1.625000 1.000000 0.000000
1.750000 1.000000 0.000000
1.875000 1.000000 0.000000
1.062500 1.000000 0.000000
1.187500 1.000000 0.000000
1.312500 1.000000 0.000000
1.437500 1.000000 0.000000
1.562500 1.000000 0.000000
1.687500 1.000000 0.000000
1.812500 1.000000 0.000000
1.937500 1.000000 0.000000
2.000000 0.875000 0.000000
2.000000 0.750000 0.000000
2.000000 0.625000 0.000000
2.000000 0.500000 0.000000
2.000000 0.375000 0.000000
2.000000 0.250000 0.000000
2.000000 0.125000 0.000000
2.000000 0.937500 0.000000
2.000000 0.812500 0.000000
2.000000 0.687500 0.000000
2.000000 0.562500 0.000000
2.000000 0.437500 0.000000
2.000000 0.312500 0.000000
2.000000 0.187500 0.000000
2.000000 0.062500 0.000000
2.125000 1.125000 0.000000
2.250000 1.250000 0.000000
2.375000 1.375000 0.000000
2.500000 1.500000 0.000000
2.625000 1.625000 0.000000
2.750000 1.750000 0.000000
2.875000 1.875000 0.000000
2.062500 1.062500 0.000000
2.187500 1.187500 0.000000
2.312500 1.312500 0.000000
2.437500 1.437500 0.000000
2.562500 1.562500 0.000000
2.687500 1.687500 0.000000
2.812500 1.812500 0.000000
2.937500 1.937500 0.000000
1.125000 1.125000 0.000000
1.250000 1.250000 0.000000
1.375000 1.375000 0.000000
1.500000 1.500000 0.000000
1.625000 1.625000 0.000000
1.750000 1.750000 0.000000
1.875000 1.875000 0.000000
1.062500 1.062500 0.000000
1.187500 1.187500 0.000000
1.312500 1.312500 0.000000
1.437500 1.437500 0.000000
1.562500 1.562500 0.000000
1.687500 1.687500 0.000000
1.812500 1.812500 0.000000
1.937500 1.937500 0.000000
0.562500 1.562500 0.000000
0.625000 1.625000 0.000000
0.687500 1.687500 0.000000
0.750000 1.750000 0.000000
0.812500 1.812500 0.000000
0.875000 1.875000 0.000000
0.937500 1.937500 0.000000
0.531250 1.531250 0.000000
0.593750 1.593750 0.000000
0.656250 1.656250 0.000000
0.718750 1.718750 0.000000
0.781250 1.781250 0.000000
0.843750 1.843750 0.000000
0.906250 1.906250 0.000000
0.968750 1.968750 0.000000
2.250000 1.000000 0.000000
2.500000 1.250000 0.000000
2.750000 1.500000 0.000000
2.250000 0.750000 0.000000
2.500000 1.000000 0.000000
2.750000 1.250000 0.000000
2.250000 0.500000 0.000000
2.500000 0.750000 0.000000
2.750000 1.000000 0.000000
2.125000 0.875000 0.000000
2.250000 1.125000 0.000000
2.125000 1.000000 0.000000
2.375000 1.125000 0.000000
2.500000 1.375000 0.000000
2.375000 1.250000 0.000000
2.625000 1.375000 0.000000
2.750000 1.625000 0.000000
2.625000 1.500000 0.000000
2.875000 1.625000 0.000000
2.875000 1.750000 0.000000
2.125000 0.625000 0.000000
2.250000 0.875000 0.000000
2.125000 0.750000 0.000000
2.375000 0.875000 0.000000
2.500000 1.125000 0.000000
2.375000 1.000000 0.000000
2.625000 1.125000 0.000000
2.750000 1.375000 0.000000
2.625000 1.250000 0.000000
2.875000 1.375000 0.000000
2.875000 1.500000 0.000000
2.125000 0.375000 0.000000
2.250000 0.625000 0.000000
2.125000 0.500000 0.000000
2.375000 0.625000 0.000000
2.500000 0.875000 0.000000
2.375000 0.750000 0.000000
2.625000 0.875000 0.000000
2.750000 1.125000 0.000000
2.625000 1.000000 0.000000
2.875000 1.125000 0.000000
2.875000 1.250000 0.000000
2.250000 0.375000 0.000000
2.125000 0.250000 0.000000
2.500000 0.625000 0.000000
2.375000 0.500000 0.000000
2.750000 0.875000 0.000000
2.625000 0.750000 0.000000
2.875000 1.000000 0.000000
2.062500 0.937500 0.000000
2.125000 1.062500 0.000000
2.062500 0.812500 0.000000
2.125000 0.937500 0.000000
2.187500 0.937500 0.000000
2.250000 1.062500 0.000000
2.187500 1.062500 0.000000
2.250000 1.187500 0.000000
2.312500 1.187500 0.000000
2.375000 1.312500 0.000000
2.312500 1.062500 0.000000
2.375000 1.187500 0.000000
2.437500 1.187500 0.000000
2.500000 1.312500 0.000000
2.437500 1.312500 0.000000
2.500000 1.437500 0.000000
2.562500 1.437500 0.000000
2.625000 1.562500 0.000000
2.562500 1.312500 0.000000
2.625000 1.437500 0.000000
2.687500 1.437500 0.000000
2.750000 1.562500 0.000000
2.687500 1.562500 0.000000
2.750000 1.687500 0.000000
2.812500 1.687500 0.000000
2.875000 1.812500 0.000000
2.812500 1.562500 0.000000
2.875000 1.687500 0.000000
2.937500 1.687500 0.000000
2.937500 1.812500 0.000000
2.062500 0.687500 0.000000
2.125000 0.812500 0.000000
2.062500 0.562500 0.000000
2.125000 0.687500 0.000000
2.187500 0.687500 0.000000
2.250000 0.812500 0.000000
2.187500 0.812500 0.000000
2.250000 0.937500 0.000000
2.312500 0.937500 0.000000
2.375000 1.062500 0.000000
2.312500 0.812500 0.000000
2.375000 0.937500 0.000000
2.437500 0.937500 0.000000
2.500000 1.062500 0.000000
2.437500 1.062500 0.000000
2.500000 1.187500 0.000000
2.562500 1.187500 0.000000
2.625000 1.312500 0.000000
2.562500 1.062500 0.000000
2.625000 1.187500 0.000000
2.687500 1.187500 0.000000
2.750000 1.312500 0.000000
2.687500 1.312500 0.000000
2.750000 1.437500 0.000000
2.812500 1.437500 0.000000
2.875000 1.562500 0.000000
2.812500 1.312500 0.000000
2.875000 1.437500 0.000000
2.937500 1.437500 0.000000
2.937500 1.562500 0.000000
2.062500 0.437500 0.000000
2.125000 0.562500 0.000000
2.062500 0.312500 0.000000
2.125000 0.437500 0.000000
2.187500 0.437500 0.000000
2.250000 0.562500 0.000000
2.187500 0.562500 0.000000
2.250000 0.687500 0.000000
2.312500 0.687500 0.000000
2.375000 0.812500 0.000000
2.312500 0.562500 0.000000
2.375000 0.687500 0.000000
2.437500 0.687500 0.000000
2.500000 0.812500 0.000000
2.437500 0.812500 0.000000
2.500000 0.937500 0.000000
2.562500 0.937500 0.000000
2.625000 1.062500 0.000000
2.562500 0.812500 0.000000
2.625000 0.937500 0.000000
2.687500 0.937500 0.000000
2.750000 1.062500 0.000000
2.687500 1.062500 0.000000
2.750000 1.187500 0.000000
2.812500 1.187500 0.000000
2.875000 1.312500 0.000000
2.812500 1.062500 0.000000
2.875000 1.187500 0.000000
2.937500 1.187500 0.000000
2.937500 1.312500 0.000000
2.062500 0.187500 0.000000
2.125000 0.312500 0.000000
2.125000 0.187500 0.000000
2.250000 0.312500 0.000000
2.187500 0.312500 0.000000
2.250000 0.437500 0.000000
2.312500 0.437500 0.000000
2.375000 0.562500 0.000000
2.375000 0.437500 0.000000
2.500000 0.562500 0.000000
2.437500 0.562500 0.000000
2.500000 0.687500 0.000000
2.562500 0.687500 0.000000
2.625000 0.812500 0.000000
2.625000 0.687500 0.000000
2.750000 0.812500 0.000000
2.687500 0.812500 0.000000
2.750000 0.937500 0.000000
2.812500 0.937500 0.000000
2.875000 1.062500 0.000000
2.875000 0.937500 0.000000
2.937500 1.062500 0.000000
1.500000 1.250000 0.000000
[...]
POINT_DATA 849
VECTORS sol double
+0.000000 +0.000000 0
+0.000000 +0.000000 0
+0.000000 +0.000000 0
+0.000000 +0.000000 0
+0.000000 +0.000000 0
+0.000000 +0.000000 0
+0.000000 +0.000000 0
+0.000000 +0.000000 0
+0.000000 +0.000000 0
+0.000000 +0.000000 0
+0.000000 +0.000000 0
+0.000000 +0.000000 0
+0.000000 +0.000000 0
+0.000000 +0.000000 0
+0.000000 +0.000000 0
+0.000000 +0.000000 0
+0.000000 +0.000000 0
+0.000000 +0.000000 0
+0.000000 +0.000000 0
+0.000000 +0.000000 0
+0.000000 +0.000000 0
+0.000000 +0.000000 0
+0.000000 +0.000000 0
+0.000000 +0.000000 0
+0.000000 +0.000000 0
+0.000000 +0.000000 0
+0.000000 +0.000000 0
+0.000000 +0.000000 0
+0.000000 +0.000000 0
+0.000000 +0.000000 0
+0.000000 +0.000000 0
+0.000000 +0.000000 0
+0.000000 +0.000000 0
+0.000000 +0.000000 0
+0.000000 +0.000000 0
+0.000000 +0.000000 0
+0.000000 +0.000000 0
+0.000000 +0.000000 0
+0.000000 +0.000000 0
+0.000000 +0.000000 0
+0.000000 +0.000000 0
+0.000000 +0.000000 0
+0.000000 +0.000000 0
+0.000000 +0.000000 0
+0.000000 +0.000000 0
+0.000000 +0.000000 0
+0.000000 +0.000000 0
+0.000000 +0.000000 0
+0.000000 +0.000000 0
+0.000000 +0.000000 0
+0.000000 +0.000000 0
+0.000000 +0.000000 0
+0.000000 +0.000000 0
+0.000000 +0.000000 0
+0.000000 +0.000000 0
+0.000000 +0.000000 0
+0.000000 +0.000000 0
+0.000000 +0.000000 0
+0.000000 +0.000000 0
+0.000000 +0.000000 0
+0.000000 +0.000000 0
+0.000000 +0.000000 0
+0.000000 +0.000000 0
+0.000000 +0.000000 0
+0.000000 +0.000000 0
+0.000000 +0.000000 0
+0.000000 +0.000000 0
+0.000000 +0.000000 0
+0.000000 +0.000000 0
+0.000000 +0.000000 0
+0.000000 +0.000000 0
+0.000000 +0.000000 0
+0.000000 +0.000000 0
+0.000000 +0.000000 0
+0.000000 +0.000000 0
+0.000000 +0.000000 0
+0.000000 +0.000000 0
+0.000000 +0.000000 0
+0.000000 +0.000000 0
+0.000000 +0.000000 0
+0.000000 +0.000000 0
+0.000000 +0.000000 0
+0.000000 +0.000000 0
+0.000000 +0.000000 0
+0.000000 +0.000000 0
+0.000000 +0.000000 0
+0.000000 +0.000000 0
+0.000000 +0.000000 0
+0.000000 +0.000000 0
+0.000000 +0.000000 0
+0.000000 +0.000000 0
+0.000000 +0.000000 0
+0.000000 +0.000000 0
+0.000000 +0.000000 0
+0.000000 +0.000000 0
+0.000000 +0.000000 0
+0.000000 +0.000000 0
+0.000000 +0.000000 0
+0.000000 +0.000000 0
+0.000000 +0.000000 0
+0.000000 +0.000000 0
+0.000000 +0.000000 0
+0.000000 +0.000000 0
+0.000000 +0.000000 0
+0.000000 +0.000000 0
+0.000000 +0.000000 0
+0.000000 +0.000000 0
+0.000000 +0.000000 0
+0.000000 +0.000000 0
+0.000000 +0.000000 0
+0.000000 +0.000000 0
+0.000000 +0.000000 0
+0.000000 +0.000000 0
+0.000000 +0.000000 0
+0.000000 +0.000000 0
+0.000000 +0.000000 0
+0.000000 +0.000000 0
+0.000000 +0.000000 0
+0.000000 +0.000000 0
+0.000000 +0.000000 0
+0.000000 +0.000000 0
+0.000000 +0.000000 0
+0.000000 +0.000000 0
+0.000000 +0.000000 0
+0.000000 +0.000000 0
+0.000000 +0.000000 0
+0.000000 +0.000000 0
+0.000000 +0.000000 0
+0.000000 +0.000000 0
+0.000000 +0.000000 0
+0.000000 +0.000000 0
+0.000000 +0.000000 0
+0.000000 +0.000000 0
+0.000000 +0.000000 0
+0.000000 +0.000000 0
+0.000000 +0.000000 0
+0.000000 +0.000000 0
+0.000000 +0.000000 0
+0.000000 +0.000000 0
+0.000000 +0.000000 0
+0.000000 +0.000000 0
+0.000000 +0.000000 0
+0.000000 +0.000000 0
+0.000000 +0.000000 0
+0.000000 +0.000000 0
+0.000000 +0.000000 0
+0.000000 +0.000000 0
+0.000000 +0.000000 0
+0.000000 +0.000000 0
+0.000000 +0.000000 0
+0.000000 +0.000000 0
+0.000000 +0.000000 0
+0.000000 +0.000000 0
+0.000000 +0.000000 0
+0.000000 +0.000000 0
+0.000000 +0.000000 0
+0.000000 +0.000000 0
+0.000000 +0.000000 0
+0.000000 +0.000000 0
+0.000000 +0.000000 0
-0.899087 -0.017110 0
-0.576364 -0.010969 0
+0.388600 +0.007395 0
+1.287457 +0.024501 0
+1.531296 +0.029141 0
+1.054793 +0.020073 0
+0.335136 +0.006378 0
-0.619443 -0.011788 0
-0.866920 -0.016498 0
-0.136042 -0.002589 0
+0.887818 +0.016896 0
+1.510103 +0.028738 0
+1.366348 +0.026002 0
+0.687295 +0.013080 0
+0.090430 +0.001721 0
+0.214285 +0.004078 0
+0.333287 +0.006343 0
+0.197910 +0.003766 0
-0.083454 -0.001588 0
-0.275465 -0.005242 0
-0.233757 -0.004449 0
-0.053256 -0.001013 0
+0.097542 +0.001856 0
+0.303066 +0.005767 0
+0.295465 +0.005623 0
+0.061064 +0.001162 0
-0.204408 -0.003890 0
-0.283810 -0.005401 0
-0.145971 -0.002778 0
+0.006225 +0.000118 0
-0.028392 -0.000540 0
-0.054565 -0.001038 0
-0.076102 -0.001448 0
-0.090279 -0.001718 0
-0.094191 -0.001793 0
-0.084595 -0.001610 0
-0.058699 -0.001117 0
-0.014337 -0.000273 0
-0.041916 -0.000798 0
-0.066100 -0.001258 0
-0.084319 -0.001605 0
-0.093758 -0.001784 0
-0.091251 -0.001737 0
-0.074963 -0.001427 0
-0.032440 -0.000617 0
-1.208497 -0.022998 0
+0.038756 +0.000738 0
+1.147789 +0.021843 0
-1.050684 -0.019995 0
-1.000988 -0.019049 0
+0.362289 +0.006895 0
-0.437219 -0.008321 0
-0.873269 -0.016619 0
-0.292646 -0.005569 0
-0.751944 -0.014310 0
-0.997035 -0.018974 0
-0.851180 -0.016198 0
-0.877355 -0.016697 0
+0.734057 +0.013969 0
-0.290315 -0.005525 0
+0.900138 +0.017130 0
+1.248143 +0.023753 0
+1.368046 +0.026035 0
+0.700472 +0.013330 0
+0.589972 +0.011227 0
-0.477180 -0.009081 0
-1.217421 -0.023168 0
-0.639076 -0.012162 0
-1.311621 -0.024961 0
-0.596303 -0.011348 0
-1.237002 -0.023541 0
-0.281235 -0.005352 0
+0.812327 +0.015459 0
+0.286374 +0.005450 0
+0.480172 +0.009138 0
+0.654318 +0.012452 0
-0.139982 -0.002664 0
-0.763215 -0.014524 0
-0.296381 -0.005640 0
-0.752022 -0.014311 0
-1.089017 -0.020725 0
-1.121100 -0.021335 0
-0.686311 -0.013061 0
-0.051775 -0.000985 0
-0.636447 -0.012112 0
+0.030783 +0.000586 0
+0.244129 +0.004646 0
-0.162453 -0.003092 0
-0.039241 -0.000747 0
-0.457116 -0.008699 0
-0.334566 -0.006367 0
-0.275389 -0.005241 0
-0.438392 -0.008343 0
-0.072965 -0.001389 0
-0.431154 -0.008205 0
-0.872176 -0.016598 0
-0.369975 -0.007041 0
-0.798441 -0.015195 0
-1.063522 -0.020239 0
-1.133823 -0.021577 0
-1.044958 -0.019886 0
-0.818769 -0.015582 0
-0.728316 -0.013860 0
+0.050996 +0.000970 0
-1.145132 -0.021792 0
-0.606482 -0.011542 0
-0.457559 -0.008708 0
+0.391613 +0.007453 0
+0.230190 +0.004381 0
+1.042154 +0.019833 0
+1.135925 +0.021617 0
+1.496652 +0.028482 0
+0.518655 +0.009870 0
+1.165208 +0.022175 0
+1.119985 +0.021314 0
+1.234304 +0.023489 0
+1.402721 +0.026694 0
+1.189065 +0.022629 0
+0.952079 +0.018119 0
+0.476435 +0.009067 0
+0.993654 +0.018910 0
+0.665070 +0.012657 0
+0.341702 +0.006503 0
+0.245002 +0.004663 0
-0.296092 -0.005635 0
-0.700800 -0.013337 0
-0.204916 -0.003900 0
-0.562074 -0.010697 0
-0.775951 -0.014767 0
-1.152938 -0.021941 0
-0.968773 -0.018436 0
-1.237042 -0.023542 0
-1.316937 -0.025062 0
-1.093258 -0.020805 0
-1.244366 -0.023681 0
-1.311780 -0.024964 0
-1.228652 -0.023382 0
-0.836580 -0.015921 0
-0.983585 -0.018718 0
-0.299400 -0.005698 0
-0.146815 -0.002794 0
+0.600366 +0.011425 0
-0.666618 -0.012686 0
-0.015018 -0.000286 0
+0.083438 +0.001588 0
+0.593601 +0.011297 0
+0.625355 +0.011901 0
+1.004773 +0.019121 0
+0.819999 +0.015605 0
+0.697378 +0.013271 0
+0.503341 +0.009579 0
+0.581586 +0.011068 0
+0.300755 +0.005724 0
+0.358936 +0.006831 0
-0.115643 -0.002201 0
-0.385292 -0.007332 0
-0.047709 -0.000908 0
-0.211845 -0.004032 0
-0.274067 -0.005216 0
-0.598282 -0.011386 0
-0.522542 -0.009944 0
-0.916911 -0.017449 0
-0.976057 -0.018575 0
-1.245882 -0.023710 0
-0.605189 -0.011517 0
-0.951075 -0.018099 0
-0.848055 -0.016139 0
-1.015373 -0.019323 0
-1.163827 -0.022148 0
-1.087567 -0.020697 0
-0.904293 -0.017209 0
-0.494402 -0.009409 0
-0.817817 -0.015563 0
-0.702939 -0.013377 0
-0.501413 -0.009542 0
-0.201609 -0.003837 0
-0.334671 -0.006369 0
+0.141657 +0.002696 0
+0.155411 +0.002958 0
+0.366733 +0.006979 0
-0.102494 -0.001951 0
+0.130548 +0.002484 0
+0.073667 +0.001402 0
+0.192329 +0.003660 0
-0.010787 -0.000205 0
-0.081365 -0.001548 0
-0.013173 -0.000251 0
-0.064597 -0.001229 0
-0.090308 -0.001719 0
-0.287676 -0.005475 0
-0.246879 -0.004698 0
-0.539812 -0.010273 0
-0.148855 -0.002833 0
-0.222153 -0.004228 0
-0.408282 -0.007770 0
-0.681103 -0.012962 0
-0.468408 -0.008914 0
-0.596042 -0.011343 0
-0.233585 -0.004445 0
-0.167195 -0.003182 0
-0.371359 -0.007067 0
-0.320032 -0.006090 0
-0.170819 -0.003251 0
-0.039469 -0.000751 0
-0.064585 -0.001229 0
-0.009209 -0.000175 0
-0.146130 -0.002781 0
-0.578283 -0.011005 0
+0.058218 +0.001108 0
-0.624256 -0.011880 0
-0.375466 -0.007145 0
+0.791776 +0.015068 0
-0.792800 -0.015087 0
+0.484180 +0.009214 0
+1.334718 +0.025400 0
+0.056439 +0.001074 0
+0.124439 +0.002368 0
+0.170673 +0.003248 0
-0.455445 -0.008667 0
-0.392049 -0.007461 0
-0.137022 -0.002608 0
-0.353367 -0.006725 0
-0.164536 -0.003131 0
-0.405967 -0.007726 0
+0.270770 +0.005153 0
+0.076767 +0.001461 0
-0.249964 -0.004757 0
-0.414129 -0.007881 0
-0.095217 -0.001812 0
-0.748545 -0.014245 0
-0.579001 -0.011019 0
-0.676994 -0.012884 0
+0.306951 +0.005841 0
+0.400885 +0.007629 0
-0.103230 -0.001965 0
+0.674998 +0.012846 0
+0.487958 +0.009286 0
-0.495498 -0.009430 0
-0.750951 -0.014291 0
-0.382373 -0.007277 0
-0.402230 -0.007655 0
+0.003424 +0.000065 0
-0.653024 -0.012427 0
+1.236781 +0.023537 0
+1.135403 +0.021607 0
+0.792572 +0.015083 0
+0.759735 +0.014458 0
+0.778618 +0.014817 0
-0.746294 -0.014202 0
-0.673684 -0.012821 0
+0.954067 +0.018156 0
-0.031863 -0.000606 0
+1.317544 +0.025074 0
+1.515484 +0.028840 0
+0.606620 +0.011544 0
+0.101909 +0.001939 0
+0.204212 +0.003886 0
+0.060084 +0.001143 0
+0.121336 +0.002309 0
-0.016149 -0.000307 0
-0.006461 -0.000123 0
+0.181098 +0.003446 0
+0.240988 +0.004586 0
+0.010404 +0.000198 0
+0.034527 +0.000657 0
-0.305247 -0.005809 0
-0.303603 -0.005778 0
-0.556559 -0.010592 0
-0.505928 -0.009628 0
-0.282647 -0.005379 0
-0.247891 -0.004717 0
-0.437186 -0.008320 0
-0.361624 -0.006882 0
-0.507323 -0.009655 0
-0.405567 -0.007718 0
-0.149056 -0.002837 0
-0.071709 -0.001365 0
-0.306472 -0.005832 0
-0.219573 -0.004179 0
-0.022004 -0.000419 0
+0.002162 +0.000041 0
+0.213563 +0.004064 0
+0.168694 +0.003210 0
+0.200989 +0.003825 0
+0.092061 +0.001752 0
-0.010367 -0.000197 0
-0.015983 -0.000304 0
-0.091709 -0.001745 0
-0.173464 -0.003301 0
-0.442904 -0.008429 0
-0.528680 -0.010061 0
-0.240052 -0.004568 0
-0.283986 -0.005404 0
-0.574740 -0.010938 0
-0.582636 -0.011088 0
-0.741016 -0.014102 0
-0.733846 -0.013965 0
-0.623601 -0.011867 0
-0.503135 -0.009575 0
-0.683564 -0.013009 0
-0.605013 -0.011514 0
-0.373544 -0.007109 0
-0.252641 -0.004808 0
-0.044682 -0.000850 0
+0.085694 +0.001631 0
+0.606875 +0.011549 0
+0.596540 +0.011352 0
+0.175444 +0.003339 0
+0.218301 +0.004154 0
+0.516763 +0.009834 0
+0.380889 +0.007249 0
+0.818397 +0.015575 0
+0.590190 +0.011232 0
+0.385045 +0.007328 0
+0.308063 +0.005863 0
-0.168478 -0.003206 0
-0.319327 -0.006077 0
-0.235124 -0.004475 0
-0.438227 -0.008340 0
-0.714124 -0.013590 0
-0.781507 -0.014872 0
-0.596703 -0.011356 0
-0.698024 -0.013284 0
-0.779040 -0.014826 0
-0.722593 -0.013751 0
-0.687724 -0.013088 0
-0.547284 -0.010415 0
+0.013791 +0.000262 0
+0.236691 +0.004504 0
-0.378098 -0.007195 0
-0.205398 -0.003909 0
+0.419982 +0.007992 0
+0.547248 +0.010414 0
+0.918028 +0.017471 0
+1.028636 +0.019575 0
+1.382966 +0.026319 0
+1.259881 +0.023976 0
+1.047655 +0.019937 0
+0.976932 +0.018592 0
+1.039229 +0.019777 0
+0.741449 +0.014110 0
+1.109907 +0.021122 0
+0.786744 +0.014972 0
+0.361877 +0.006887 0
+0.407484 +0.007755 0
-0.319082 -0.006072 0
-0.568156 -0.010812 0
-0.765864 -0.014575 0
-0.687948 -0.013092 0
-0.819959 -0.015604 0
-0.786858 -0.014974 0
-0.467521 -0.008897 0
-0.229336 -0.004364 0
+0.180509 +0.003435 0
+1.146528 +0.021819 0
+0.474889 +0.009037 0
+0.728507 +0.013864 0
+1.322205 +0.025162 0
+1.405236 +0.026742 0
+1.561831 +0.029722 0
+1.216661 +0.023154 0
+1.509405 +0.028725 0
+1.357420 +0.025832 0
+0.990457 +0.018849 0
+0.699576 +0.013313 0
+0.482030 +0.009173 0
+0.249571 +0.004749 0
+0.258193 +0.004914 0
+0.360778 +0.006866 0
+0.258182 +0.004913 0
+0.524046 +0.009973 0
+0.590819 +0.011244 0
+0.246615 +0.004693 0
+0.558996 +0.010638 0
+0.407109 +0.007747 0
-0.021563 -0.000410 0
+0.140539 +0.002675 0
+0.094186 +0.001792 0
+0.050586 +0.000963 0
+0.334885 +0.006373 0
+0.141584 +0.002694 0
+0.125413 +0.002387 0
+0.334169 +0.006359 0
+0.129394 +0.002462 0
+0.142513 +0.002712 0
+0.138903 +0.002643 0
+0.086855 +0.001653 0
+0.297860 +0.005668 0
+0.410488 +0.007812 0
+0.227834 +0.004336 0
+0.626697 +0.011926 0
+0.521768 +0.009930 0
+0.513595 +0.009774 0
+0.443694 +0.008444 0
+0.295367 +0.005621 0
+0.440907 +0.008391 0
+0.077349 +0.001472 0
+0.128566 +0.002447 0
+0.338120 +0.006435 0
+0.577278 +0.010986 0
+0.337656 +0.006426 0
+0.576827 +0.010977 0
+0.551338 +0.010492 0
+0.650347 +0.012376 0
+0.161397 +0.003071 0
+0.129544 +0.002465 0
+0.343409 +0.006535 0
-0.063892 -0.001216 0
+0.003565 +0.000068 0
+0.471921 +0.008981 0
+0.295013 +0.005614 0
+0.182176 +0.003467 0
+0.416841 +0.007933 0
-0.159630 -0.003038 0
-0.062236 -0.001184 0
-0.092268 -0.001756 0
+0.025709 +0.000489 0
+0.008911 +0.000170 0
+0.071731 +0.001365 0
+0.094932 +0.001807 0
+0.203441 +0.003872 0
+0.175808 +0.003346 0
+0.073538 +0.001399 0
+0.016249 +0.000309 0
+0.111425 +0.002120 0
+0.021168 +0.000403 0
+0.302392 +0.005755 0
+0.231492 +0.004405 0
+0.354381 +0.006744 0
+0.255711 +0.004866 0
+0.135270 +0.002574 0
+0.024008 +0.000457 0
+0.143731 +0.002735 0
+0.026304 +0.000501 0
+0.353947 +0.006736 0
+0.247246 +0.004705 0
+0.302566 +0.005758 0
+0.205302 +0.003907 0
+0.137810 +0.002623 0
+0.029584 +0.000563 0
+0.113870 +0.002167 0
+0.035482 +0.000675 0
+0.203103 +0.003865 0
+0.122753 +0.002336 0
+0.067831 +0.001291 0
+0.054714 +0.001041 0
+0.116857 +0.002224 0
+0.185392 +0.003528 0
+0.153656 +0.002924 0
+0.265862 +0.005059 0
+0.423866 +0.008066 0
+0.473627 +0.009013 0
+0.327282 +0.006228 0
+0.337489 +0.006423 0
+0.473405 +0.009009 0
+0.430421 +0.008191 0
+0.592765 +0.011281 0
+0.580220 +0.011042 0
+0.625400 +0.011902 0
+0.569480 +0.010837 0
+0.529680 +0.010080 0
+0.451077 +0.008584 0
+0.491483 +0.009353 0
+0.400066 +0.007613 0
+0.528151 +0.010051 0
+0.455988 +0.008678 0
+0.346779 +0.006599 0
+0.281167 +0.005351 0
+0.374225 +0.007122 0
+0.288524 +0.005491 0
+0.211347 +0.004022 0
+0.139745 +0.002659 0
+0.153662 +0.002924 0
+0.107039 +0.002037 0
+0.024319 +0.000463 0
+0.055633 +0.001059 0
+0.175322 +0.003336 0
+0.322252 +0.006133 0
+0.176587 +0.003361 0
+0.343312 +0.006533 0
+0.470364 +0.008951 0
+0.577327 +0.010987 0
+0.475223 +0.009044 0
+0.559237 +0.010643 0
+0.636764 +0.012118 0
+0.650742 +0.012384 0
+0.595083 +0.011325 0
+0.625699 +0.011907 0
+0.510210 +0.009710 0
+0.491578 +0.009355 0
+0.619919 +0.011797 0
+0.585185 +0.011136 0
+0.455146 +0.008662 0
+0.405850 +0.007724 0
+0.284817 +0.005420 0
+0.260674 +0.004961 0
+0.054971 +0.001046 0
+0.055348 +0.001053 0
+0.230618 +0.004389 0
+0.194875 +0.003709 0
+0.051472 +0.000980 0
+0.041162 +0.000783 0
-0.061059 -0.001162 0
-0.033747 -0.000642 0
-0.039436 -0.000750 0
-0.013061 -0.000249 0
+0.153566 +0.002922 0
+0.322326 +0.006134 0
+0.259991 +0.004948 0
+0.406995 +0.007745 0
+0.408776 +0.007779 0
+0.523230 +0.009957 0
+0.473874 +0.009018 0
+0.506555 +0.009640 0
+0.312922 +0.005955 0
+0.051942 +0.000988 0
+0.312955 +0.005956 0
+0.302861 +0.005764 0
+0.049565 +0.000943 0
+0.051775 +0.000985 0
-0.173558 -0.003303 0
-0.208285 -0.003964 0
-0.134361 -0.002557 0
-0.095862 -0.001824 0
-0.140860 -0.002681 0
-0.085828 -0.001633 0
-0.083337 -0.001586 0
-0.037324 -0.000710 0
-0.402788 -0.007665 0
-0.440528 -0.008383 0
-0.173198 -0.003296 0
-0.526147 -0.010013 0
-0.671090 -0.012771 0
-0.370712 -0.007055 0
-0.354510 -0.006747 0
-0.515331 -0.009807 0
-0.374041 -0.007118 0
-0.230405 -0.004385 0
-0.226262 -0.004306 0
-0.131953 -0.002511 0
-0.476264 -0.009064 0
-0.225580 -0.004293 0
-0.258233 -0.004914 0
-0.321413 -0.006117 0
-0.070042 -0.001333 0
-0.150447 -0.002863 0
-0.055001 -0.001047 0
-0.016909 -0.000322 0
-0.291023 -0.005538 0
-0.505775 -0.009625 0
-0.284292 -0.005410 0
-0.660710 -0.012574 0
-0.599827 -0.011415 0
-0.617194 -0.011746 0
-0.562112 -0.010697 0
-0.283826 -0.005401 0
-0.471264 -0.008968 0
-0.160549 -0.003055 0
-0.107787 -0.002051 0
-0.190457 -0.003624 0
-0.469678 -0.008938 0
-0.255928 -0.004870 0
-0.468730 -0.008920 0
-0.640704 -0.012193 0
-0.605655 -0.011526 0
-0.484012 -0.009211 0
-0.406435 -0.007735 0
-0.568932 -0.010827 0
-0.199829 -0.003803 0
-0.195869 -0.003727 0
-0.206693 -0.003933 0
-0.109519 -0.002084 0
-0.319414 -0.006079 0
-0.279982 -0.005328 0
-0.266826 -0.005078 0
-0.317185 -0.006036 0
-0.158973 -0.003025 0
-0.068579 -0.001305 0
-0.069364 -0.001320 0
-0.119121 -0.002267 0
-0.186428 -0.003548 0
-0.327206 -0.006227 0
-0.322822 -0.006143 0
-0.186031 -0.003540 0
-0.117645 -0.002239 0
-0.251056 -0.004778 0
-0.131535 -0.002503 0
-0.453626 -0.008633 0
-0.375139 -0.007139 0
-0.471458 -0.008972 0
-0.337452 -0.006422 0
-0.249307 -0.004744 0
-0.111004 -0.002112 0
-0.191132 -0.003637 0
-0.069928 -0.001331 0
-0.388490 -0.007393 0
-0.235779 -0.004487 0
-0.246866 -0.004698 0
-0.118594 -0.002257 0
-0.108294 -0.002061 0
-0.029463 -0.000561 0
-0.038615 -0.000735 0
-0.005920 -0.000113 0
-0.107169 -0.002039 0
-0.033301 -0.000634 0
-0.019099 -0.000363 0
-0.004635 -0.000088 0
-0.146327 -0.002785 0
-0.263424 -0.005013 0
-0.149183 -0.002839 0
-0.293489 -0.005585 0
-0.418870 -0.007971 0
-0.526438 -0.010018 0
-0.406552 -0.007737 0
-0.464640 -0.008842 0
-0.577436 -0.010989 0
-0.558322 -0.010625 0
-0.608234 -0.011575 0
-0.651872 -0.012405 0
-0.682032 -0.012979 0
-0.647992 -0.012332 0
-0.624603 -0.011887 0
-0.529701 -0.010080 0
-0.546966 -0.010409 0
-0.401538 -0.007641 0
-0.630098 -0.011991 0
-0.526098 -0.010012 0
-0.473201 -0.009005 0
-0.332079 -0.006320 0
-0.380557 -0.007242 0
-0.229350 -0.004365 0
-0.189945 -0.003615 0
-0.080050 -0.001523 0
-0.263314 -0.005011 0
-0.134993 -0.002569 0
-0.070233 -0.001337 0
-0.042990 -0.000818 0
-0.130695 -0.002487 0
-0.278155 -0.005293 0
-0.096911 -0.001844 0
-0.226115 -0.004303 0
-0.277347 -0.005278 0
-0.417957 -0.007954 0
-0.370576 -0.007052 0
-0.506731 -0.009643 0
-0.549268 -0.010453 0
-0.644988 -0.012274 0
-0.419124 -0.007976 0
-0.545858 -0.010388 0
-0.501349 -0.009541 0
-0.588850 -0.011206 0
-0.636735 -0.012117 0
-0.668835 -0.012728 0
-0.617874 -0.011758 0
-0.577090 -0.010982 0
-0.509841 -0.009703 0
-0.537915 -0.010237 0
-0.438679 -0.008348 0
-0.399587 -0.007604 0
-0.497105 -0.009460 0
-0.396370 -0.007543 0
-0.303554 -0.005777 0
-0.181254 -0.003449 0
-0.293060 -0.005577 0
-0.202466 -0.003853 0
-0.099123 -0.001886 0
-0.091840 -0.001748 0
-0.055515 -0.001056 0
-0.150923 -0.002872 0
-0.068040 -0.001295 0
-0.129374 -0.002462 0
-0.160328 -0.003051 0
-0.282874 -0.005383 0
-0.246892 -0.004698 0
-0.378595 -0.007205 0
-0.177471 -0.003377 0
-0.206232 -0.003925 0
-0.304371 -0.005792 0
-0.424105 -0.008071 0
-0.323839 -0.006163 0
-0.409811 -0.007799 0
-0.210155 -0.003999 0
-0.184570 -0.003512 0
-0.298525 -0.005681 0
-0.330000 -0.006280 0
-0.220982 -0.004205 0
-0.186040 -0.003540 0
-0.120722 -0.002297 0
-0.086751 -0.001651 0
