# vtk DataFile Version 2.0
MyTitle
ASCII
DATASET UNSTRUCTURED_GRID
POINTS 601 double
2.000000 0.000000 0.000000
2.000000 1.000000 0.000000
3.000000 1.000000 0.000000
2.000000 2.000000 0.000000
1.000000 2.000000 0.000000
1.000000 3.000000 0.000000
0.000000 3.000000 0.000000
0.000000 2.000000 0.000000
1.000000 1.000000 0.000000
1.500000 1.500000 0.000000
2.500000 1.500000 0.000000
2.000000 0.166667 0.000000
2.000000 0.333333 0.000000
2.000000 0.500000 0.000000
2.000000 0.666667 0.000000
2.000000 0.833333 0.000000
2.000000 0.083333 0.000000
2.000000 0.250000 0.000000
2.000000 0.416667 0.000000
2.000000 0.583333 0.000000
2.000000 0.750000 0.000000
2.000000 0.916667 0.000000
2.166667 1.000000 0.000000
2.333333 1.000000 0.000000
2.500000 1.000000 0.000000
2.666667 1.000000 0.000000
2.833333 1.000000 0.000000
2.083333 1.000000 0.000000
2.250000 1.000000 0.000000
2.416667 1.000000 0.000000
2.583333 1.000000 0.000000
2.750000 1.000000 0.000000
2.916667 1.000000 0.000000
2.916667 1.083333 0.000000
2.833333 1.166667 0.000000
2.750000 1.250000 0.000000
2.666667 1.333333 0.000000
2.583333 1.416667 0.000000
2.958333 1.041667 0.000000
2.875000 1.125000 0.000000
2.791667 1.208333 0.000000
2.708333 1.291667 0.000000
2.625000 1.375000 0.000000
2.541667 1.458333 0.000000
1.833333 2.000000 0.000000
1.666667 2.000000 0.000000
1.500000 2.000000 0.000000
1.333333 2.000000 0.000000
1.166667 2.000000 0.000000
1.916667 2.000000 0.000000
1.750000 2.000000 0.000000
1.583333 2.000000 0.000000
1.416667 2.000000 0.000000
1.250000 2.000000 0.000000
1.083333 2.000000 0.000000
1.000000 2.166667 0.000000
1.000000 2.333333 0.000000
1.000000 2.500000 0.000000
1.000000 2.666667 0.000000
1.000000 2.833333 0.000000
1.000000 2.083333 0.000000
1.000000 2.250000 0.000000
1.000000 2.416667 0.000000
1.000000 2.583333 0.000000
1.000000 2.750000 0.000000
1.000000 2.916667 0.000000
0.833333 3.000000 0.000000
0.666667 3.000000 0.000000
0.500000 3.000000 0.000000
0.333333 3.000000 0.000000
0.166667 3.000000 0.000000
0.916667 3.000000 0.000000
0.750000 3.000000 0.000000
0.583333 3.000000 0.000000
0.416667 3.000000 0.000000
0.250000 3.000000 0.000000
0.083333 3.000000 0.000000
0.000000 2.833333 0.000000
0.000000 2.666667 0.000000
0.000000 2.500000 0.000000
0.000000 2.333333 0.000000
0.000000 2.166667 0.000000
0.000000 2.916667 0.000000
0.000000 2.750000 0.000000
0.000000 2.583333 0.000000
0.000000 2.416667 0.000000
0.000000 2.250000 0.000000
0.000000 2.083333 0.000000
0.166667 1.833333 0.000000
0.333333 1.666667 0.000000
0.500000 1.500000 0.000000
0.666667 1.333333 0.000000
0.833333 1.166667 0.000000
0.083333 1.916667 0.000000
0.250000 1.750000 0.000000
0.416667 1.583333 0.000000
0.583333 1.416667 0.000000
0.750000 1.250000 0.000000
0.916667 1.083333 0.000000
1.166667 0.833333 0.000000
1.333333 0.666667 0.000000
1.500000 0.500000 0.000000
1.666667 0.333333 0.000000
1.833333 0.166667 0.000000
1.083333 0.916667 0.000000
1.250000 0.750000 0.000000
1.416667 0.583333 0.000000
1.583333 0.416667 0.000000
1.750000 0.250000 0.000000
1.916667 0.083333 0.000000
1.916667 1.083333 0.000000
1.833333 1.166667 0.000000
1.750000 1.250000 0.000000
1.666667 1.333333 0.000000
1.583333 1.416667 0.000000
1.958333 1.041667 0.000000
1.875000 1.125000 0.000000
1.791667 1.208333 0.000000
1.708333 1.291667 0.000000
1.625000 1.375000 0.000000
1.541667 1.458333 0.000000
0.833333 2.000000 0.000000
0.666667 2.000000 0.000000
0.500000 2.000000 0.000000
0.333333 2.000000 0.000000
0.166667 2.000000 0.000000
0.916667 2.000000 0.000000
0.750000 2.000000 0.000000
0.583333 2.000000 0.000000
0.416667 2.000000 0.000000
0.250000 2.000000 0.000000
0.083333 2.000000 0.000000
1.416667 1.583333 0.000000
1.333333 1.666667 0.000000
1.250000 1.750000 0.000000
1.166667 1.833333 0.000000
1.083333 1.916667 0.000000
1.458333 1.541667 0.000000
1.375000 1.625000 0.000000
1.291667 1.708333 0.000000
1.208333 1.791667 0.000000
1.125000 1.875000 0.000000
1.041667 1.958333 0.000000
1.416667 1.416667 0.000000
1.333333 1.333333 0.000000
1.250000 1.250000 0.000000
1.166667 1.166667 0.000000
1.083333 1.083333 0.000000
1.458333 1.458333 0.000000
1.375000 1.375000 0.000000
1.291667 1.291667 0.000000
1.208333 1.208333 0.000000
1.125000 1.125000 0.000000
1.041667 1.041667 0.000000
2.416667 1.583333 0.000000
2.333333 1.666667 0.000000
2.250000 1.750000 0.000000
2.166667 1.833333 0.000000
2.083333 1.916667 0.000000
2.458333 1.541667 0.000000
2.375000 1.625000 0.000000
2.291667 1.708333 0.000000
2.208333 1.791667 0.000000
2.125000 1.875000 0.000000
2.041667 1.958333 0.000000
2.333333 1.500000 0.000000
2.166667 1.500000 0.000000
2.000000 1.500000 0.000000
1.833333 1.500000 0.000000
1.666667 1.500000 0.000000
2.416667 1.500000 0.000000
2.250000 1.500000 0.000000
2.083333 1.500000 0.000000
1.916667 1.500000 0.000000
1.750000 1.500000 0.000000
1.583333 1.500000 0.000000
2.166667 1.166667 0.000000
2.000000 1.333333 0.000000
2.500000 1.166667 0.000000
2.333333 1.333333 0.000000
2.250000 1.083333 0.000000
2.000000 1.166667 0.000000
2.083333 1.083333 0.000000
2.083333 1.250000 0.000000
1.833333 1.333333 0.000000
1.916667 1.250000 0.000000
1.916667 1.416667 0.000000
1.750000 1.416667 0.000000
2.583333 1.083333 0.000000
2.333333 1.166667 0.000000
2.416667 1.083333 0.000000
2.416667 1.250000 0.000000
2.166667 1.333333 0.000000
2.250000 1.250000 0.000000
2.250000 1.416667 0.000000
2.083333 1.416667 0.000000
2.666667 1.166667 0.000000
2.750000 1.083333 0.000000
2.500000 1.333333 0.000000
2.583333 1.250000 0.000000
2.416667 1.416667 0.000000
2.125000 1.041667 0.000000
2.000000 1.083333 0.000000
2.291667 1.041667 0.000000
2.166667 1.083333 0.000000
2.208333 1.125000 0.000000
2.083333 1.166667 0.000000
2.041667 1.125000 0.000000
1.916667 1.166667 0.000000
1.958333 1.208333 0.000000
1.833333 1.250000 0.000000
2.125000 1.208333 0.000000
2.000000 1.250000 0.000000
2.041667 1.291667 0.000000
1.916667 1.333333 0.000000
1.875000 1.291667 0.000000
1.750000 1.333333 0.000000
1.791667 1.375000 0.000000
1.666667 1.416667 0.000000
1.958333 1.375000 0.000000
1.833333 1.416667 0.000000
1.875000 1.458333 0.000000
1.708333 1.458333 0.000000
2.458333 1.041667 0.000000
2.333333 1.083333 0.000000
2.625000 1.041667 0.000000
2.500000 1.083333 0.000000
2.541667 1.125000 0.000000
2.416667 1.166667 0.000000
2.375000 1.125000 0.000000
2.250000 1.166667 0.000000
2.291667 1.208333 0.000000
2.166667 1.250000 0.000000
2.458333 1.208333 0.000000
2.333333 1.250000 0.000000
2.375000 1.291667 0.000000
2.250000 1.333333 0.000000
2.208333 1.291667 0.000000
2.083333 1.333333 0.000000
2.125000 1.375000 0.000000
2.000000 1.416667 0.000000
2.291667 1.375000 0.000000
2.166667 1.416667 0.000000
2.208333 1.458333 0.000000
2.041667 1.458333 0.000000
2.791667 1.041667 0.000000
2.666667 1.083333 0.000000
2.833333 1.083333 0.000000
2.750000 1.166667 0.000000
2.708333 1.125000 0.000000
2.583333 1.166667 0.000000
2.625000 1.208333 0.000000
2.500000 1.250000 0.000000
2.666667 1.250000 0.000000
2.583333 1.333333 0.000000
2.541667 1.291667 0.000000
2.416667 1.333333 0.000000
2.458333 1.375000 0.000000
2.333333 1.416667 0.000000
2.500000 1.416667 0.000000
2.375000 1.458333 0.000000
2.000000 1.666667 0.000000
1.833333 1.833333 0.000000
1.666667 1.666667 0.000000
1.500000 1.833333 0.000000
2.166667 1.666667 0.000000
2.083333 1.583333 0.000000
2.250000 1.583333 0.000000
2.000000 1.833333 0.000000
1.916667 1.750000 0.000000
2.083333 1.750000 0.000000
1.750000 1.916667 0.000000
1.916667 1.916667 0.000000
1.833333 1.666667 0.000000
1.750000 1.583333 0.000000
1.916667 1.583333 0.000000
1.666667 1.833333 0.000000
1.583333 1.750000 0.000000
1.750000 1.750000 0.000000
1.416667 1.916667 0.000000
1.583333 1.916667 0.000000
1.500000 1.666667 0.000000
1.583333 1.583333 0.000000
1.333333 1.833333 0.000000
1.416667 1.750000 0.000000
1.250000 1.916667 0.000000
2.333333 1.583333 0.000000
2.291667 1.541667 0.000000
2.250000 1.666667 0.000000
2.208333 1.625000 0.000000
2.083333 1.666667 0.000000
2.041667 1.625000 0.000000
2.166667 1.583333 0.000000
2.125000 1.541667 0.000000
2.166667 1.750000 0.000000
2.125000 1.708333 0.000000
2.083333 1.833333 0.000000
2.041667 1.791667 0.000000
1.916667 1.833333 0.000000
1.875000 1.791667 0.000000
2.000000 1.750000 0.000000
1.958333 1.708333 0.000000
2.000000 1.916667 0.000000
1.958333 1.875000 0.000000
1.875000 1.958333 0.000000
1.708333 1.958333 0.000000
1.833333 1.916667 0.000000
1.791667 1.875000 0.000000
2.000000 1.583333 0.000000
1.958333 1.541667 0.000000
1.916667 1.666667 0.000000
1.875000 1.625000 0.000000
1.750000 1.666667 0.000000
1.708333 1.625000 0.000000
1.833333 1.583333 0.000000
1.791667 1.541667 0.000000
1.833333 1.750000 0.000000
1.791667 1.708333 0.000000
1.750000 1.833333 0.000000
1.708333 1.791667 0.000000
1.583333 1.833333 0.000000
1.541667 1.791667 0.000000
1.666667 1.750000 0.000000
1.625000 1.708333 0.000000
1.666667 1.916667 0.000000
1.625000 1.875000 0.000000
1.541667 1.958333 0.000000
1.375000 1.958333 0.000000
1.500000 1.916667 0.000000
1.458333 1.875000 0.000000
1.666667 1.583333 0.000000
1.625000 1.541667 0.000000
1.583333 1.666667 0.000000
1.541667 1.625000 0.000000
1.416667 1.666667 0.000000
1.500000 1.583333 0.000000
1.500000 1.750000 0.000000
1.458333 1.708333 0.000000
1.416667 1.833333 0.000000
1.375000 1.791667 0.000000
1.250000 1.833333 0.000000
1.333333 1.750000 0.000000
1.333333 1.916667 0.000000
1.291667 1.875000 0.000000
1.208333 1.958333 0.000000
1.166667 1.916667 0.000000
0.666667 2.333333 0.000000
0.333333 2.333333 0.000000
0.666667 2.666667 0.000000
0.333333 2.666667 0.000000
0.833333 2.333333 0.000000
0.666667 2.166667 0.000000
0.833333 2.166667 0.000000
0.500000 2.333333 0.000000
0.333333 2.166667 0.000000
0.500000 2.166667 0.000000
0.166667 2.333333 0.000000
0.166667 2.166667 0.000000
0.833333 2.666667 0.000000
0.666667 2.500000 0.000000
0.833333 2.500000 0.000000
0.500000 2.666667 0.000000
0.333333 2.500000 0.000000
0.500000 2.500000 0.000000
0.166667 2.666667 0.000000
0.166667 2.500000 0.000000
0.666667 2.833333 0.000000
[...]
POINT_DATA 601
VECTORS sol double
+0.000000 +0.000000 0
+0.000000 +0.000000 0
+0.000000 +0.000000 0
+0.000000 +0.000000 0
+0.000000 +0.000000 0
+0.000000 +0.000000 0
+0.000000 +0.000000 0
+0.000000 +0.000000 0
+0.000000 +0.000000 0
-0.130570 -1.053430 0
+0.000000 +0.000000 0
+0.000000 +0.000000 0
+0.000000 +0.000000 0
+0.000000 +0.000000 0
+0.000000 +0.000000 0
+0.000000 +0.000000 0
+0.000000 +0.000000 0
+0.000000 +0.000000 0
+0.000000 +0.000000 0
+0.000000 +0.000000 0
+0.000000 +0.000000 0
+0.000000 +0.000000 0
+0.000000 +0.000000 0
+0.000000 +0.000000 0
+0.000000 +0.000000 0
+0.000000 +0.000000 0
+0.000000 +0.000000 0
+0.000000 +0.000000 0
+0.000000 +0.000000 0
+0.000000 +0.000000 0
+0.000000 +0.000000 0
+0.000000 +0.000000 0
+0.000000 +0.000000 0
+0.000000 +0.000000 0
+0.000000 +0.000000 0
+0.000000 +0.000000 0
+0.000000 +0.000000 0
+0.000000 +0.000000 0
+0.000000 +0.000000 0
+0.000000 +0.000000 0
+0.000000 +0.000000 0
+0.000000 +0.000000 0
+0.000000 +0.000000 0
+0.000000 +0.000000 0
+0.000000 +0.000000 0
+0.000000 +0.000000 0
+0.000000 +0.000000 0
+0.000000 +0.000000 0
+0.000000 +0.000000 0
+0.000000 +0.000000 0
+0.000000 +0.000000 0
+0.000000 +0.000000 0
+0.000000 +0.000000 0
+0.000000 +0.000000 0
+0.000000 +0.000000 0
+0.000000 +0.000000 0
+0.000000 +0.000000 0
+0.000000 +0.000000 0
+0.000000 +0.000000 0
+0.000000 +0.000000 0
+0.000000 +0.000000 0
+0.000000 +0.000000 0
+0.000000 +0.000000 0
+0.000000 +0.000000 0
+0.000000 +0.000000 0
+0.000000 +0.000000 0
+0.000000 +0.000000 0
+0.000000 +0.000000 0
+0.000000 +0.000000 0
+0.000000 +0.000000 0
+0.000000 +0.000000 0
+0.000000 +0.000000 0
+0.000000 +0.000000 0
+0.000000 +0.000000 0
+0.000000 +0.000000 0
+0.000000 +0.000000 0
+0.000000 +0.000000 0
+0.000000 +0.000000 0
+0.000000 +0.000000 0
+0.000000 +0.000000 0
+0.000000 +0.000000 0
+0.000000 +0.000000 0
+0.000000 +0.000000 0
+0.000000 +0.000000 0
+0.000000 +0.000000 0
+0.000000 +0.000000 0
+0.000000 +0.000000 0
+0.000000 +0.000000 0
+0.000000 +0.000000 0
+0.000000 +0.000000 0
+0.000000 +0.000000 0
+0.000000 +0.000000 0
+0.000000 +0.000000 0
+0.000000 +0.000000 0
+0.000000 +0.000000 0
+0.000000 +0.000000 0
+0.000000 +0.000000 0
+0.000000 +0.000000 0
+0.000000 +0.000000 0
+0.000000 +0.000000 0
+0.000000 +0.000000 0
+0.000000 +0.000000 0
+0.000000 +0.000000 0
+0.000000 +0.000000 0
+0.000000 +0.000000 0
+0.000000 +0.000000 0
+0.000000 +0.000000 0
+0.000000 +0.000000 0
+0.000000 +0.000000 0
+0.000000 +0.000000 0
+0.054424 +0.439090 0
+0.044250 +0.357009 0
-0.004187 -0.033783 0
-0.066811 -0.539026 0
-0.115675 -0.933263 0
+0.034043 +0.274654 0
+0.056655 +0.457091 0
+0.023688 +0.191110 0
-0.035430 -0.285844 0
-0.094562 -0.762920 0
-0.128227 -1.034531 0
-0.016161 -0.130389 0
-0.075363 -0.608024 0
-0.120540 -0.972507 0
-0.113558 -0.916176 0
-0.056333 -0.454494 0
+0.000534 +0.004304 0
-0.043852 -0.353799 0
-0.102816 -0.829513 0
-0.124817 -1.007018 0
-0.089361 -0.720961 0
-0.023953 -0.193253 0
-0.106855 -0.862101 0
-0.056954 -0.459501 0
-0.004283 -0.034558 0
+0.027821 +0.224458 0
+0.027124 +0.218837 0
-0.123308 -0.994838 0
-0.083991 -0.677631 0
-0.029391 -0.237125 0
+0.015542 +0.125390 0
+0.031849 +0.256953 0
+0.015264 +0.123151 0
-0.086444 -0.697425 0
-0.032165 -0.259508 0
+0.012434 +0.100318 0
+0.032668 +0.263561 0
+0.025320 +0.204277 0
-0.110965 -0.895260 0
-0.059353 -0.478855 0
-0.007576 -0.061123 0
+0.026061 +0.210255 0
+0.032055 +0.258618 0
+0.013814 +0.111451 0
+0.000000 +0.000000 0
+0.000000 +0.000000 0
+0.000000 +0.000000 0
+0.000000 +0.000000 0
+0.000000 +0.000000 0
+0.000000 +0.000000 0
+0.000000 +0.000000 0
+0.000000 +0.000000 0
+0.000000 +0.000000 0
+0.000000 +0.000000 0
+0.000000 +0.000000 0
+0.089540 +0.722402 0
+0.127130 +1.025677 0
+0.078065 +0.629824 0
-0.028452 -0.229545 0
-0.119596 -0.964895 0
+0.046997 +0.379166 0
+0.118452 +0.955662 0
+0.113162 +0.912981 0
+0.027959 +0.225574 0
-0.080915 -0.652819 0
-0.137453 -1.108965 0
+0.124649 +1.005659 0
+0.121828 +0.982904 0
+0.066323 +0.535087 0
+0.144737 +1.167727 0
+0.066982 +0.540410 0
+0.098652 +0.795922 0
+0.065594 +0.529211 0
+0.147233 +1.187871 0
+0.022729 +0.183374 0
+0.082401 +0.664803 0
+0.055456 +0.447418 0
-0.054655 -0.440955 0
+0.025227 +0.203528 0
+0.110275 +0.889690 0
+0.050511 +0.407523 0
+0.111568 +0.900124 0
+0.170665 +1.376915 0
+0.157064 +1.267181 0
+0.151805 +1.224750 0
+0.142001 +1.145652 0
+0.021876 +0.176496 0
+0.006241 +0.050355 0
+0.069527 +0.560937 0
+0.045080 +0.363700 0
+0.086739 +0.699806 0
+0.034196 +0.275891 0
+0.059045 +0.476369 0
+0.033047 +0.266619 0
+0.068401 +0.551854 0
+0.098762 +0.796803 0
+0.116425 +0.939309 0
+0.087895 +0.709134 0
+0.074893 +0.604236 0
+0.097243 +0.784551 0
+0.038753 +0.312659 0
+0.141635 +1.142699 0
+0.120315 +0.970691 0
+0.140803 +1.135988 0
+0.075432 +0.608580 0
+0.056739 +0.457766 0
-0.027499 -0.221863 0
-0.015701 -0.126677 0
-0.095260 -0.768549 0
+0.092781 +0.748552 0
-0.001321 -0.010657 0
+0.013898 +0.112128 0
-0.090591 -0.730885 0
+0.022684 +0.183013 0
+0.060724 +0.489919 0
+0.010109 +0.081557 0
+0.037808 +0.305033 0
+0.044215 +0.356721 0
+0.090279 +0.728368 0
+0.080460 +0.649147 0
+0.122428 +0.987739 0
+0.136719 +1.103041 0
+0.160022 +1.291047 0
+0.089299 +0.720461 0
+0.139677 +1.126905 0
+0.130642 +1.054010 0
+0.166588 +1.344019 0
+0.169031 +1.363735 0
+0.155323 +1.253140 0
+0.161753 +1.305010 0
+0.106110 +0.856089 0
+0.152225 +1.228145 0
+0.157921 +1.274093 0
+0.143522 +1.157925 0
+0.113583 +0.916381 0
+0.002098 +0.016931 0
+0.014189 +0.114479 0
+0.001725 +0.013917 0
+0.007530 +0.060754 0
+0.012820 +0.103432 0
+0.042217 +0.340606 0
+0.032688 +0.263723 0
+0.077969 +0.629046 0
+0.017854 +0.144047 0
+0.030539 +0.246386 0
+0.057483 +0.463770 0
+0.110034 +0.887750 0
+0.079428 +0.640824 0
+0.126159 +1.017846 0
+0.041644 +0.335985 0
+0.090229 +0.727964 0
+0.016238 +0.131006 0
-0.055583 -0.448440 0
-0.136462 -1.100969 0
-0.087628 -0.706976 0
+0.047402 +0.382438 0
+0.076625 +0.618207 0
+0.075275 +0.607312 0
-0.011129 -0.089784 0
-0.033613 -0.271190 0
+0.014742 +0.118934 0
-0.042148 -0.340045 0
-0.018275 -0.147441 0
-0.066973 -0.540330 0
-0.100265 -0.808929 0
-0.000375 -0.003022 0
-0.092020 -0.742411 0
-0.128898 -1.039940 0
-0.100210 -0.808487 0
-0.036033 -0.290710 0
-0.051237 -0.413375 0
-0.135706 -1.094871 0
-0.148968 -1.201862 0
-0.038424 -0.310002 0
-0.090964 -0.733891 0
-0.003173 -0.025599 0
+0.043967 +0.354724 0
+0.084597 +0.682523 0
+0.032761 +0.264313 0
+0.062817 +0.506806 0
+0.041439 +0.334327 0
+0.046550 +0.375563 0
+0.087177 +0.703343 0
+0.104499 +0.843089 0
+0.016654 +0.134360 0
+0.031219 +0.251875 0
+0.001104 +0.008905 0
+0.000358 +0.002884 0
-0.031733 -0.256016 0
-0.049024 -0.395519 0
-0.003623 -0.029230 0
-0.011254 -0.090796 0
-0.007481 -0.060358 0
-0.017732 -0.143057 0
-0.013185 -0.106373 0
-0.023733 -0.191478 0
-0.031188 -0.251623 0
-0.053429 -0.431062 0
+0.045552 +0.367511 0
+0.039121 +0.315622 0
-0.022624 -0.182532 0
-0.036773 -0.296684 0
-0.107872 -0.870301 0
-0.123955 -1.000062 0
-0.052360 -0.422440 0
-0.067708 -0.546266 0
-0.068497 -0.552628 0
-0.088816 -0.716564 0
-0.077489 -0.625180 0
-0.101334 -0.817554 0
-0.096059 -0.774999 0
-0.111349 -0.898357 0
-0.122204 -0.985931 0
-0.138140 -1.114506 0
-0.049549 -0.399758 0
-0.074685 -0.602556 0
-0.025285 -0.204001 0
-0.014536 -0.117275 0
-0.046640 -0.376287 0
-0.061390 -0.495292 0
-0.134934 -1.088639 0
-0.139831 -1.128150 0
-0.146856 -1.184826 0
-0.147547 -1.190404 0
-0.104194 -0.840631 0
-0.139375 -1.124473 0
-0.118282 -0.954295 0
-0.116038 -0.936188 0
-0.067448 -0.544170 0
-0.063913 -0.515650 0
-0.004682 -0.037775 0
-0.050787 -0.409747 0
-0.020612 -0.166296 0
-0.017204 -0.138805 0
+0.003079 +0.024839 0
+0.014131 +0.114010 0
-0.022599 -0.182328 0
-0.043760 -0.353055 0
+0.107594 +0.868063 0
+0.098378 +0.793704 0
-0.007058 -0.056947 0
-0.082640 -0.666733 0
-0.035660 -0.287705 0
-0.039765 -0.320821 0
-0.111781 -0.901841 0
-0.116555 -0.940355 0
-0.028270 -0.228080 0
-0.065263 -0.526542 0
+0.064200 +0.517965 0
+0.061237 +0.494058 0
+0.038919 +0.313998 0
+0.118785 +0.958353 0
+0.046570 +0.375722 0
+0.061793 +0.498545 0
+0.054983 +0.443596 0
+0.024241 +0.195574 0
+0.081725 +0.659354 0
+0.048160 +0.388555 0
+0.077280 +0.623490 0
+0.091765 +0.740354 0
+0.043715 +0.352689 0
-0.017216 -0.138896 0
-0.034178 -0.275747 0
-0.002735 -0.022063 0
-0.026118 -0.210718 0
-0.013888 -0.112048 0
-0.059359 -0.478904 0
-0.059017 -0.476148 0
-0.088229 -0.711828 0
-0.103282 -0.833274 0
-0.128700 -1.038344 0
-0.031983 -0.258037 0
-0.085468 -0.689552 0
-0.044185 -0.356483 0
-0.084308 -0.680191 0
-0.120001 -0.968160 0
-0.121808 -0.982743 0
-0.092775 -0.748505 0
-0.068514 -0.552768 0
-0.038347 -0.309381 0
-0.051219 -0.413228 0
-0.014995 -0.120980 0
-0.034194 -0.275873 0
+0.020676 +0.166814 0
+0.016280 +0.131345 0
+0.033593 +0.271027 0
+0.056152 +0.453032 0
+0.089674 +0.723481 0
+0.092512 +0.746385 0
+0.052866 +0.426522 0
+0.020316 +0.163907 0
+0.064174 +0.517754 0
+0.012435 +0.100322 0
+0.117678 +0.949421 0
+0.099760 +0.804855 0
+0.112364 +0.906543 0
+0.080688 +0.650983 0
+0.055720 +0.449546 0
+0.002572 +0.020754 0
+0.035951 +0.290051 0
-0.001482 -0.011961 0
+0.079043 +0.637714 0
+0.044324 +0.357601 0
+0.028277 +0.228138 0
+0.012215 +0.098553 0
+0.025117 +0.202642 0
+0.061607 +0.497041 0
+0.026451 +0.213409 0
+0.044984 +0.362927 0
+0.067640 +0.545714 0
+0.104111 +0.839961 0
+0.090119 +0.727079 0
+0.116243 +0.937844 0
+0.050657 +0.408701 0
+0.042783 +0.345172 0
+0.087556 +0.706400 0
+0.097348 +0.785394 0
+0.062514 +0.504356 0
+0.054843 +0.442470 0
+0.024251 +0.195654 0
+0.022554 +0.181963 0
+0.089690 +0.723616 0
+0.096236 +0.776425 0
+0.015178 +0.122453 0
+0.131766 +1.063081 0
+0.008420 +0.067929 0
+0.075426 +0.608530 0
+0.039024 +0.314846 0
+0.124793 +1.006820 0
+0.020859 +0.168285 0
+0.069566 +0.561251 0
+0.028001 +0.225907 0
-0.043246 -0.348903 0
-0.077554 -0.625700 0
+0.061918 +0.499553 0
-0.044814 -0.361559 0
+0.104142 +0.840208 0
+0.138959 +1.121111 0
+0.136924 +1.104696 0
+0.092389 +0.745392 0
+0.079833 +0.644087 0
-0.013545 -0.109282 0
-0.059616 -0.480982 0
+0.078086 +0.629995 0
+0.047891 +0.386385 0
+0.061386 +0.495256 0
+0.011718 +0.094544 0
+0.036533 +0.294742 0
-0.035886 -0.289523 0
+0.029022 +0.234149 0
+0.052589 +0.424288 0
+0.088183 +0.711455 0
+0.061212 +0.493859 0
+0.054274 +0.437877 0
+0.078617 +0.634278 0
+0.032883 +0.265301 0
+0.115103 +0.928647 0
+0.101477 +0.818707 0
+0.117958 +0.951675 0
+0.060886 +0.491221 0
+0.049277 +0.397560 0
-0.019828 -0.159971 0
-0.011652 -0.094011 0
-0.077690 -0.626799 0
+0.064261 +0.518451 0
-0.006898 -0.055650 0
-0.006056 -0.048859 0
-0.069454 -0.560350 0
-0.090327 -0.728755 0
-0.017946 -0.144790 0
-0.105244 -0.849101 0
-0.066613 -0.537431 0
-0.035393 -0.285549 0
+0.038657 +0.311880 0
+0.008513 +0.068682 0
+0.080386 +0.648549 0
+0.107110 +0.864159 0
+0.137127 +1.106331 0
+0.064528 +0.520610 0
+0.125457 +1.012181 0
+0.127742 +1.030615 0
+0.142116 +1.146585 0
+0.147850 +1.192844 0
+0.123290 +0.994699 0
+0.114348 +0.922555 0
+0.057879 +0.466968 0
+0.118557 +0.956515 0
+0.091802 +0.740655 0
+0.061382 +0.495230 0
+0.043503 +0.350978 0
-0.065198 -0.526015 0
-0.075718 -0.610889 0
-0.033167 -0.267593 0
-0.012996 -0.104848 0
-0.041858 -0.337705 0
-0.003782 -0.030510 0
+0.018268 +0.147383 0
+0.077114 +0.622153 0
+0.020915 +0.168742 0
+0.040548 +0.327139 0
+0.069250 +0.558708 0
+0.110012 +0.887568 0
+0.074917 +0.604424 0
+0.082059 +0.662046 0
+0.033322 +0.268836 0
+0.043216 +0.348662 0
-0.022350 -0.180322 0
+0.028110 +0.226791 0
+0.007079 +0.057111 0
+0.018958 +0.152954 0
-0.048594 -0.392053 0
-0.045913 -0.370420 0
-0.085912 -0.693131 0
+0.014209 +0.114635 0
+0.033010 +0.266320 0
+0.005436 +0.043855 0
+0.016242 +0.131037 0
+0.024697 +0.199253 0
+0.001899 +0.015324 0
-0.003006 -0.024252 0
-0.016422 -0.132489 0
+0.020003 +0.161386 0
+0.025194 +0.203262 0
+0.020307 +0.163835 0
+0.008033 +0.064807 0
+0.013116 +0.105821 0
+0.007073 +0.057064 0
+0.005293 +0.042703 0
+0.009319 +0.075185 0
+0.012275 +0.099032 0
+0.002905 +0.023438 0
-0.092061 -0.742739 0
-0.102520 -0.827123 0
-0.046788 -0.377485 0
-0.067401 -0.543784 0
-0.039232 -0.316522 0
-0.033987 -0.274204 0
-0.069466 -0.560449 0
-0.057099 -0.460671 0
-0.019320 -0.155875 0
+0.000741 +0.005982 0
-0.002809 -0.022662 0
+0.009939 +0.080186 0
+0.024977 +0.201509 0
+0.029977 +0.241854 0
+0.024053 +0.194054 0
+0.039331 +0.317321 0
+0.032629 +0.263250 0
+0.032673 +0.263606 0
+0.024281 +0.195901 0
+0.018858 +0.152146 0
+0.008052 +0.064962 0
+0.009843 +0.079410 0
-0.008274 -0.066752 0
-0.031223 -0.251906 0
+0.011949 +0.096408 0
-0.005350 -0.043164 0
+0.001334 +0.010760 0
+0.003324 +0.026814 0
-0.013451 -0.108518 0
-0.011757 -0.094851 0
+0.009788 +0.078965 0
+0.017873 +0.144194 0
+0.014528 +0.117213 0
+0.021123 +0.170417 0
+0.021477 +0.173274 0
+0.022622 +0.182515 0
+0.025618 +0.206685 0
+0.026746 +0.215788 0
+0.020183 +0.162832 0
+0.014879 +0.120047 0
+0.013863 +0.111849 0
+0.010705 +0.086364 0
+0.003054 +0.024641 0
+0.005789 +0.046703 0
+0.011971 +0.096580 0
+0.005101 +0.041155 0
+0.003048 +0.024591 0
+0.004186 +0.033771 0
+0.004341 +0.035021 0
+0.008206 +0.066203 0
+0.010435 +0.084191 0
+0.016992 +0.137087 0
+0.006441 +0.051963 0
+0.004248 +0.034271 0
+0.011784 +0.095071 0
+0.014377 +0.115989 0
+0.005933 +0.047869 0
+0.005260 +0.042436 0
+0.001049 +0.008460 0
+0.000842 +0.006795 0
