# vtk DataFile Version 2.0
MyTitle
ASCII
DATASET UNSTRUCTURED_GRID
POINTS 849 double
2.000000 0.000000 0.000000
3.000000 1.000000 0.000000
3.000000 2.000000 0.000000
2.000000 2.000000 0.000000
1.000000 2.000000 0.000000
1.000000 3.000000 0.000000
0.000000 2.000000 0.000000
0.500000 1.500000 0.000000
1.000000 1.000000 0.000000
2.000000 1.000000 0.000000
2.125000 0.125000 0.000000
2.250000 0.250000 0.000000
2.375000 0.375000 0.000000
2.500000 0.500000 0.000000
2.625000 0.625000 0.000000
2.750000 0.750000 0.000000
2.875000 0.875000 0.000000
2.062500 0.062500 0.000000
2.187500 0.187500 0.000000
2.312500 0.312500 0.000000
2.437500 0.437500 0.000000
2.562500 0.562500 0.000000
2.687500 0.687500 0.000000
2.812500 0.812500 0.000000
2.937500 0.937500 0.000000
3.000000 1.125000 0.000000
3.000000 1.250000 0.000000
3.000000 1.375000 0.000000
3.000000 1.500000 0.000000
3.000000 1.625000 0.000000
3.000000 1.750000 0.000000
3.000000 1.875000 0.000000
3.000000 1.062500 0.000000
3.000000 1.187500 0.000000
3.000000 1.312500 0.000000
3.000000 1.437500 0.000000
3.000000 1.562500 0.000000
3.000000 1.687500 0.000000
3.000000 1.812500 0.000000
3.000000 1.937500 0.000000
2.875000 2.000000 0.000000
2.750000 2.000000 0.000000
2.625000 2.000000 0.000000
2.500000 2.000000 0.000000
2.375000 2.000000 0.000000
2.250000 2.000000 0.000000
2.125000 2.000000 0.000000
2.937500 2.000000 0.000000
2.812500 2.000000 0.000000
2.687500 2.000000 0.000000
2.562500 2.000000 0.000000
2.437500 2.000000 0.000000
2.312500 2.000000 0.000000
2.187500 2.000000 0.000000
2.062500 2.000000 0.000000
1.875000 2.000000 0.000000
1.750000 2.000000 0.000000
1.625000 2.000000 0.000000
1.500000 2.000000 0.000000
1.375000 2.000000 0.000000
1.250000 2.000000 0.000000
1.125000 2.000000 0.000000
1.937500 2.000000 0.000000
1.812500 2.000000 0.000000
1.687500 2.000000 0.000000
1.562500 2.000000 0.000000
1.437500 2.000000 0.000000
1.312500 2.000000 0.000000
1.187500 2.000000 0.000000
1.062500 2.000000 0.000000
1.000000 2.125000 0.000000
1.000000 2.250000 0.000000
1.000000 2.375000 0.000000
1.000000 2.500000 0.000000
1.000000 2.625000 0.000000
1.000000 2.750000 0.000000
1.000000 2.875000 0.000000
1.000000 2.062500 0.000000
1.000000 2.187500 0.000000
1.000000 2.312500 0.000000
1.000000 2.437500 0.000000
1.000000 2.562500 0.000000
1.000000 2.687500 0.000000
1.000000 2.812500 0.000000
1.000000 2.937500 0.000000
0.875000 2.875000 0.000000
0.750000 2.750000 0.000000
0.625000 2.625000 0.000000
0.500000 2.500000 0.000000
0.375000 2.375000 0.000000
0.250000 2.250000 0.000000
0.125000 2.125000 0.000000
0.937500 2.937500 0.000000
0.812500 2.812500 0.000000
0.687500 2.687500 0.000000
0.562500 2.562500 0.000000
0.437500 2.437500 0.000000
0.312500 2.312500 0.000000
0.187500 2.187500 0.000000
0.062500 2.062500 0.000000
0.062500 1.937500 0.000000
0.125000 1.875000 0.000000
0.187500 1.812500 0.000000
0.250000 1.750000 0.000000
0.312500 1.687500 0.000000
0.375000 1.625000 0.000000
0.437500 1.562500 0.000000
0.031250 1.968750 0.000000
0.093750 1.906250 0.000000
0.156250 1.843750 0.000000
0.218750 1.781250 0.000000
0.281250 1.718750 0.000000
0.343750 1.656250 0.000000
0.406250 1.593750 0.000000
0.468750 1.531250 0.000000
0.562500 1.437500 0.000000
0.625000 1.375000 0.000000
0.687500 1.312500 0.000000
0.750000 1.250000 0.000000
0.812500 1.187500 0.000000
0.875000 1.125000 0.000000
0.937500 1.062500 0.000000
0.531250 1.468750 0.000000
0.593750 1.406250 0.000000
0.656250 1.343750 0.000000
0.718750 1.281250 0.000000
0.781250 1.218750 0.000000
0.843750 1.156250 0.000000
0.906250 1.093750 0.000000
0.968750 1.031250 0.000000
1.125000 1.000000 0.000000
1.250000 1.000000 0.000000
1.375000 1.000000 0.000000
1.500000 1.000000 0.000000
1.625000 1.000000 0.000000
1.750000 1.000000 0.000000
1.875000 1.000000 0.000000
1.062500 1.000000 0.000000
1.187500 1.000000 0.000000
1.312500 1.000000 0.000000
1.437500 1.000000 0.000000
1.562500 1.000000 0.000000
1.687500 1.000000 0.000000
1.812500 1.000000 0.000000
1.937500 1.000000 0.000000
2.000000 0.875000 0.000000
2.000000 0.750000 0.000000
2.000000 0.625000 0.000000
2.000000 0.500000 0.000000
2.000000 0.375000 0.000000
2.000000 0.250000 0.000000
2.000000 0.125000 0.000000
2.000000 0.937500 0.000000
2.000000 0.812500 0.000000
2.000000 0.687500 0.000000
2.000000 0.562500 0.000000
2.000000 0.437500 0.000000
2.000000 0.312500 0.000000
2.000000 0.187500 0.000000
2.000000 0.062500 0.000000
2.125000 1.125000 0.000000
2.250000 1.250000 0.000000
2.375000 1.375000 0.000000
2.500000 1.500000 0.000000
2.625000 1.625000 0.000000
2.750000 1.750000 0.000000
2.875000 1.875000 0.000000
2.062500 1.062500 0.000000
2.187500 1.187500 0.000000
2.312500 1.312500 0.000000
2.437500 1.437500 0.000000
2.562500 1.562500 0.000000
2.687500 1.687500 0.000000
2.812500 1.812500 0.000000
2.937500 1.937500 0.000000
1.125000 1.125000 0.000000
1.250000 1.250000 0.000000
1.375000 1.375000 0.000000
1.500000 1.500000 0.000000
1.625000 1.625000 0.000000
1.750000 1.750000 0.000000
1.875000 1.875000 0.000000
1.062500 1.062500 0.000000
1.187500 1.187500 0.000000
1.312500 1.312500 0.000000
1.437500 1.437500 0.000000
1.562500 1.562500 0.000000
1.687500 1.687500 0.000000
1.812500 1.812500 0.000000
1.937500 1.937500 0.000000
0.562500 1.562500 0.000000
0.625000 1.625000 0.000000
0.687500 1.687500 0.000000
0.750000 1.750000 0.000000
0.812500 1.812500 0.000000
0.875000 1.875000 0.000000
0.937500 1.937500 0.000000
0.531250 1.531250 0.000000
0.593750 1.593750 0.000000
0.656250 1.656250 0.000000
0.718750 1.718750 0.000000
0.781250 1.781250 0.000000
0.843750 1.843750 0.000000
0.906250 1.906250 0.000000
0.968750 1.968750 0.000000
2.250000 1.000000 0.000000
2.500000 1.250000 0.000000
2.750000 1.500000 0.000000
2.250000 0.750000 0.000000
2.500000 1.000000 0.000000
2.750000 1.250000 0.000000
2.250000 0.500000 0.000000
2.500000 0.750000 0.000000
2.750000 1.000000 0.000000
2.125000 0.875000 0.000000
2.250000 1.125000 0.000000
2.125000 1.000000 0.000000
2.375000 1.125000 0.000000
2.500000 1.375000 0.000000
2.375000 1.250000 0.000000
2.625000 1.375000 0.000000
2.750000 1.625000 0.000000
2.625000 1.500000 0.000000
2.875000 1.625000 0.000000
2.875000 1.750000 0.000000
2.125000 0.625000 0.000000
2.250000 0.875000 0.000000
2.125000 0.750000 0.000000
2.375000 0.875000 0.000000
2.500000 1.125000 0.000000
2.375000 1.000000 0.000000
2.625000 1.125000 0.000000
2.750000 1.375000 0.000000
2.625000 1.250000 0.000000
2.875000 1.375000 0.000000
2.875000 1.500000 0.000000
2.125000 0.375000 0.000000
2.250000 0.625000 0.000000
2.125000 0.500000 0.000000
2.375000 0.625000 0.000000
2.500000 0.875000 0.000000
2.375000 0.750000 0.000000
2.625000 0.875000 0.000000
2.750000 1.125000 0.000000
2.625000 1.000000 0.000000
2.875000 1.125000 0.000000
2.875000 1.250000 0.000000
2.250000 0.375000 0.000000
2.125000 0.250000 0.000000
2.500000 0.625000 0.000000
2.375000 0.500000 0.000000
2.750000 0.875000 0.000000
2.625000 0.750000 0.000000
2.875000 1.000000 0.000000
2.062500 0.937500 0.000000
2.125000 1.062500 0.000000
2.062500 0.812500 0.000000
2.125000 0.937500 0.000000
2.187500 0.937500 0.000000
2.250000 1.062500 0.000000
2.187500 1.062500 0.000000
2.250000 1.187500 0.000000
2.312500 1.187500 0.000000
2.375000 1.312500 0.000000
2.312500 1.062500 0.000000
2.375000 1.187500 0.000000
2.437500 1.187500 0.000000
2.500000 1.312500 0.000000
2.437500 1.312500 0.000000
2.500000 1.437500 0.000000
2.562500 1.437500 0.000000
2.625000 1.562500 0.000000
2.562500 1.312500 0.000000
2.625000 1.437500 0.000000
2.687500 1.437500 0.000000
2.750000 1.562500 0.000000
2.687500 1.562500 0.000000
2.750000 1.687500 0.000000
2.812500 1.687500 0.000000
2.875000 1.812500 0.000000
2.812500 1.562500 0.000000
2.875000 1.687500 0.000000
2.937500 1.687500 0.000000
2.937500 1.812500 0.000000
2.062500 0.687500 0.000000
2.125000 0.812500 0.000000
2.062500 0.562500 0.000000
2.125000 0.687500 0.000000
2.187500 0.687500 0.000000
2.250000 0.812500 0.000000
2.187500 0.812500 0.000000
2.250000 0.937500 0.000000
2.312500 0.937500 0.000000
2.375000 1.062500 0.000000
2.312500 0.812500 0.000000
2.375000 0.937500 0.000000
2.437500 0.937500 0.000000
2.500000 1.062500 0.000000
2.437500 1.062500 0.000000
2.500000 1.187500 0.000000
2.562500 1.187500 0.000000
2.625000 1.312500 0.000000
2.562500 1.062500 0.000000
2.625000 1.187500 0.000000
2.687500 1.187500 0.000000
2.750000 1.312500 0.000000
2.687500 1.312500 0.000000
2.750000 1.437500 0.000000
2.812500 1.437500 0.000000
2.875000 1.562500 0.000000
2.812500 1.312500 0.000000
2.875000 1.437500 0.000000
2.937500 1.437500 0.000000
2.937500 1.562500 0.000000
2.062500 0.437500 0.000000
2.125000 0.562500 0.000000
2.062500 0.312500 0.000000
2.125000 0.437500 0.000000
2.187500 0.437500 0.000000
2.250000 0.562500 0.000000
2.187500 0.562500 0.000000
2.250000 0.687500 0.000000
2.312500 0.687500 0.000000
2.375000 0.812500 0.000000
2.312500 0.562500 0.000000
2.375000 0.687500 0.000000
2.437500 0.687500 0.000000
2.500000 0.812500 0.000000
2.437500 0.812500 0.000000
2.500000 0.937500 0.000000
2.562500 0.937500 0.000000
2.625000 1.062500 0.000000
2.562500 0.812500 0.000000
2.625000 0.937500 0.000000
2.687500 0.937500 0.000000
2.750000 1.062500 0.000000
2.687500 1.062500 0.000000
2.750000 1.187500 0.000000
2.812500 1.187500 0.000000
2.875000 1.312500 0.000000
2.812500 1.062500 0.000000
2.875000 1.187500 0.000000
2.937500 1.187500 0.000000
2.937500 1.312500 0.000000
2.062500 0.187500 0.000000
2.125000 0.312500 0.000000
2.125000 0.187500 0.000000
2.250000 0.312500 0.000000
2.187500 0.312500 0.000000
2.250000 0.437500 0.000000
2.312500 0.437500 0.000000
2.375000 0.562500 0.000000
2.375000 0.437500 0.000000
2.500000 0.562500 0.000000
2.437500 0.562500 0.000000
2.500000 0.687500 0.000000
2.562500 0.687500 0.000000
2.625000 0.812500 0.000000
2.625000 0.687500 0.000000
2.750000 0.812500 0.000000
2.687500 0.812500 0.000000
2.750000 0.937500 0.000000
2.812500 0.937500 0.000000
2.875000 1.062500 0.000000
2.875000 0.937500 0.000000
2.937500 1.062500 0.000000
1.500000 1.250000 0.000000
[...]
POINT_DATA 849
VECTORS sol double
+0.000000 +0.000000 0
+0.000000 +0.000000 0
+0.000000 +0.000000 0
+0.000000 +0.000000 0
+0.000000 +0.000000 0
+0.000000 +0.000000 0
+0.000000 +0.000000 0
+0.000000 +0.000000 0
+0.000000 +0.000000 0
+0.000000 +0.000000 0
+0.000000 +0.000000 0
+0.000000 +0.000000 0
+0.000000 +0.000000 0
+0.000000 +0.000000 0
+0.000000 +0.000000 0
+0.000000 +0.000000 0
+0.000000 +0.000000 0
+0.000000 +0.000000 0
+0.000000 +0.000000 0
+0.000000 +0.000000 0
+0.000000 +0.000000 0
+0.000000 +0.000000 0
+0.000000 +0.000000 0
+0.000000 +0.000000 0
+0.000000 +0.000000 0
+0.000000 +0.000000 0
+0.000000 +0.000000 0
+0.000000 +0.000000 0
+0.000000 +0.000000 0
+0.000000 +0.000000 0
+0.000000 +0.000000 0
+0.000000 +0.000000 0
+0.000000 +0.000000 0
+0.000000 +0.000000 0
+0.000000 +0.000000 0
+0.000000 +0.000000 0
+0.000000 +0.000000 0
+0.000000 +0.000000 0
+0.000000 +0.000000 0
+0.000000 +0.000000 0
+0.000000 +0.000000 0
+0.000000 +0.000000 0
+0.000000 +0.000000 0
+0.000000 +0.000000 0
+0.000000 +0.000000 0
+0.000000 +0.000000 0
+0.000000 +0.000000 0
+0.000000 +0.000000 0
+0.000000 +0.000000 0
+0.000000 +0.000000 0
+0.000000 +0.000000 0
+0.000000 +0.000000 0
+0.000000 +0.000000 0
+0.000000 +0.000000 0
+0.000000 +0.000000 0
+0.000000 +0.000000 0
+0.000000 +0.000000 0
+0.000000 +0.000000 0
+0.000000 +0.000000 0
+0.000000 +0.000000 0
+0.000000 +0.000000 0
+0.000000 +0.000000 0
+0.000000 +0.000000 0
+0.000000 +0.000000 0
+0.000000 +0.000000 0
+0.000000 +0.000000 0
+0.000000 +0.000000 0
+0.000000 +0.000000 0
+0.000000 +0.000000 0
+0.000000 +0.000000 0
+0.000000 +0.000000 0
+0.000000 +0.000000 0
+0.000000 +0.000000 0
+0.000000 +0.000000 0
+0.000000 +0.000000 0
+0.000000 +0.000000 0
+0.000000 +0.000000 0
+0.000000 +0.000000 0
+0.000000 +0.000000 0
+0.000000 +0.000000 0
+0.000000 +0.000000 0
+0.000000 +0.000000 0
+0.000000 +0.000000 0
+0.000000 +0.000000 0
+0.000000 +0.000000 0
+0.000000 +0.000000 0
+0.000000 +0.000000 0
+0.000000 +0.000000 0
+0.000000 +0.000000 0
+0.000000 +0.000000 0
+0.000000 +0.000000 0
+0.000000 +0.000000 0
+0.000000 +0.000000 0
+0.000000 +0.000000 0
+0.000000 +0.000000 0
+0.000000 +0.000000 0
+0.000000 +0.000000 0
+0.000000 +0.000000 0
+0.000000 +0.000000 0
+0.000000 +0.000000 0
+0.000000 +0.000000 0
+0.000000 +0.000000 0
+0.000000 +0.000000 0
+0.000000 +0.000000 0
+0.000000 +0.000000 0
+0.000000 +0.000000 0
+0.000000 +0.000000 0
+0.000000 +0.000000 0
+0.000000 +0.000000 0
+0.000000 +0.000000 0
+0.000000 +0.000000 0
+0.000000 +0.000000 0
+0.000000 +0.000000 0
+0.000000 +0.000000 0
+0.000000 +0.000000 0
+0.000000 +0.000000 0
+0.000000 +0.000000 0
+0.000000 +0.000000 0
+0.000000 +0.000000 0
+0.000000 +0.000000 0
+0.000000 +0.000000 0
+0.000000 +0.000000 0
+0.000000 +0.000000 0
+0.000000 +0.000000 0
+0.000000 +0.000000 0
+0.000000 +0.000000 0
+0.000000 +0.000000 0
+0.000000 +0.000000 0
+0.000000 +0.000000 0
+0.000000 +0.000000 0
+0.000000 +0.000000 0
+0.000000 +0.000000 0
+0.000000 +0.000000 0
+0.000000 +0.000000 0
+0.000000 +0.000000 0
+0.000000 +0.000000 0
+0.000000 +0.000000 0
+0.000000 +0.000000 0
+0.000000 +0.000000 0
+0.000000 +0.000000 0
+0.000000 +0.000000 0
+0.000000 +0.000000 0
+0.000000 +0.000000 0
+0.000000 +0.000000 0
+0.000000 +0.000000 0
+0.000000 +0.000000 0
+0.000000 +0.000000 0
+0.000000 +0.000000 0
+0.000000 +0.000000 0
+0.000000 +0.000000 0
+0.000000 +0.000000 0
+0.000000 +0.000000 0
+0.000000 +0.000000 0
+0.000000 +0.000000 0
+0.000000 +0.000000 0
+0.000000 +0.000000 0
+0.000000 +0.000000 0
+0.000000 +0.000000 0
+0.000000 +0.000000 0
+0.000000 +0.000000 0
+0.055213 +0.002365 0
+0.253161 +0.010846 0
+0.211515 +0.009062 0
-0.116701 -0.005000 0
-0.418030 -0.017909 0
-0.402653 -0.017251 0
-0.149076 -0.006387 0
-0.016612 -0.000712 0
+0.161163 +0.006905 0
+0.275982 +0.011824 0
+0.070952 +0.003040 0
-0.293268 -0.012564 0
-0.455854 -0.019530 0
-0.288237 -0.012349 0
-0.042048 -0.001801 0
-0.528039 -0.022622 0
-0.953745 -0.040861 0
-0.751977 -0.032217 0
-0.092413 -0.003959 0
+0.402574 +0.017247 0
+0.343761 +0.014728 0
+0.005784 +0.000248 0
-0.224245 -0.009607 0
-0.802378 -0.034376 0
-0.937238 -0.040154 0
-0.443239 -0.018989 0
+0.214124 +0.009174 0
+0.440901 +0.018889 0
+0.171007 +0.007326 0
-0.069063 -0.002959 0
+0.372913 +0.015977 0
+0.676916 +0.029001 0
+0.859607 +0.036828 0
+0.896873 +0.038424 0
+0.796967 +0.034144 0
+0.593447 +0.025425 0
+0.334819 +0.014344 0
+0.191034 +0.008184 0
+0.537537 +0.023029 0
+0.785925 +0.033671 0
+0.896899 +0.038425 0
+0.862735 +0.036962 0
+0.705251 +0.030215 0
+0.473198 +0.020273 0
+0.168538 +0.007221 0
-0.592796 -0.025397 0
+0.910897 +0.039025 0
+0.432228 +0.018518 0
-1.471390 -0.063038 0
+0.072311 +0.003098 0
+1.239002 +0.053082 0
-0.918125 -0.039335 0
-0.870740 -0.037305 0
+0.663992 +0.028447 0
-0.752823 -0.032253 0
-0.017614 -0.000755 0
-0.367604 -0.015749 0
+0.229205 +0.009820 0
+0.583075 +0.024980 0
+0.484689 +0.020765 0
+0.923226 +0.039553 0
-0.112602 -0.004824 0
+0.248921 +0.010664 0
+0.015281 +0.000655 0
-0.163280 -0.006995 0
-0.892996 -0.038258 0
-1.172897 -0.050250 0
-0.942077 -0.040361 0
-1.074363 -0.046028 0
+0.693274 +0.029702 0
-0.410659 -0.017594 0
+1.082656 +0.046384 0
+0.972238 +0.041653 0
+1.254542 +0.053748 0
+0.625877 +0.026814 0
+0.325212 +0.013933 0
-0.345021 -0.014782 0
-1.359210 -0.058232 0
-0.652467 -0.027953 0
-1.218532 -0.052205 0
-0.578201 -0.024772 0
-1.399275 -0.059948 0
-0.041740 -0.001788 0
+1.105641 +0.047368 0
+0.534912 +0.022917 0
+0.685049 +0.029349 0
+0.771418 +0.033049 0
-0.382734 -0.016397 0
-0.104668 -0.004484 0
-0.630434 -0.027009 0
-0.646098 -0.027680 0
+0.189008 +0.008098 0
-0.275235 -0.011792 0
+0.373746 +0.016012 0
-0.304067 -0.013027 0
-0.158206 -0.006778 0
-0.463806 -0.019871 0
-0.583267 -0.024989 0
-0.794443 -0.034036 0
-0.283560 -0.012148 0
-0.255927 -0.010965 0
+0.176105 +0.007545 0
+0.261487 +0.011203 0
+0.414408 +0.017754 0
-0.217451 -0.009316 0
+0.423997 +0.018165 0
+0.637043 +0.027292 0
+0.814545 +0.034897 0
+0.602192 +0.025799 0
+0.258375 +0.011069 0
+0.449618 +0.019263 0
-0.112738 -0.004830 0
+1.008230 +0.043195 0
+0.609163 +0.026098 0
+0.706399 +0.030264 0
+0.139096 +0.005959 0
+0.040183 +0.001722 0
-0.304168 -0.013031 0
-0.183052 -0.007842 0
-0.178631 -0.007653 0
+0.179819 +0.007704 0
-0.098814 -0.004233 0
-0.040384 -0.001730 0
-0.084976 -0.003641 0
-0.502375 -0.021523 0
-0.879229 -0.037668 0
-0.423004 -0.018123 0
-0.946902 -0.040568 0
-1.279683 -0.054825 0
-1.374001 -0.058866 0
-1.191139 -0.051031 0
-0.906038 -0.038817 0
-0.893209 -0.038267 0
-0.061758 -0.002646 0
-1.405310 -0.060207 0
-0.766886 -0.032855 0
-0.547219 -0.023444 0
+0.414746 +0.017769 0
+0.160311 +0.006868 0
+0.872214 +0.037368 0
+1.082542 +0.046379 0
+1.150546 +0.049292 0
+0.654464 +0.028039 0
+1.233811 +0.052859 0
+1.285857 +0.055089 0
+1.154022 +0.049441 0
+1.204663 +0.051611 0
+0.720368 +0.030862 0
+0.645374 +0.027649 0
+0.157913 +0.006765 0
+0.989937 +0.042411 0
+0.483751 +0.020725 0
+0.260119 +0.011144 0
+0.092971 +0.003983 0
-0.273062 -0.011699 0
-0.787833 -0.033753 0
-0.123500 -0.005291 0
-0.494965 -0.021206 0
-0.628844 -0.026941 0
-1.166967 -0.049996 0
-1.047554 -0.044880 0
-1.468327 -0.062907 0
-1.495040 -0.064051 0
-1.299319 -0.055666 0
-1.135438 -0.048645 0
-1.373897 -0.058861 0
-1.131013 -0.048455 0
-0.790337 -0.033860 0
-1.077633 -0.046168 0
-0.277328 -0.011881 0
-0.004038 -0.000173 0
+0.839737 +0.035976 0
-0.486109 -0.020826 0
+0.224269 +0.009608 0
+0.369105 +0.015813 0
+0.913133 +0.039121 0
+0.930716 +0.039874 0
+1.225626 +0.052509 0
+1.043863 +0.044722 0
+0.724486 +0.031039 0
+0.779730 +0.033406 0
+0.760896 +0.032599 0
+0.398293 +0.017064 0
+0.382368 +0.016382 0
-0.029579 -0.001267 0
-0.208073 -0.008914 0
-0.035400 -0.001517 0
-0.157800 -0.006761 0
-0.227034 -0.009727 0
-0.642954 -0.027546 0
-0.532462 -0.022812 0
-0.964332 -0.041314 0
-0.306862 -0.013147 0
-0.344395 -0.014755 0
-0.684295 -0.029317 0
-0.818495 -0.035066 0
-0.488985 -0.020949 0
-0.221334 -0.009482 0
-0.201764 -0.008644 0
+0.035764 +0.001532 0
-0.037018 -0.001586 0
+0.408449 +0.017499 0
+0.340006 +0.014567 0
+0.557967 +0.023905 0
+0.193625 +0.008295 0
+0.285982 +0.012252 0
-0.319027 -0.013668 0
+0.642396 +0.027522 0
-0.321203 -0.013761 0
+0.535530 +0.022943 0
+0.223146 +0.009560 0
-1.130283 -0.048424 0
+0.510031 +0.021851 0
-0.471863 -0.020216 0
-1.043180 -0.044692 0
-0.470660 -0.020164 0
-0.753648 -0.032288 0
-0.591789 -0.025354 0
+0.284951 +0.012208 0
+0.374003 +0.016023 0
-0.264706 -0.011341 0
+0.326813 +0.014001 0
+0.107948 +0.004625 0
+0.518387 +0.022209 0
-0.542801 -0.023255 0
-0.257634 -0.011038 0
+0.080124 +0.003433 0
+0.176048 +0.007542 0
-0.213306 -0.009139 0
+0.714945 +0.030630 0
+0.576047 +0.024679 0
+0.657787 +0.028181 0
-0.637649 -0.027318 0
-0.794061 -0.034020 0
-0.122820 -0.005262 0
-0.811699 -0.034775 0
-0.749858 -0.032126 0
+0.364106 +0.015599 0
+0.639682 +0.027406 0
+0.297937 +0.012764 0
+0.194951 +0.008352 0
-0.208818 -0.008946 0
+0.495098 +0.021211 0
-1.030844 -0.044164 0
-1.212820 -0.051960 0
-0.987428 -0.042304 0
-0.539364 -0.023108 0
-0.724030 -0.031019 0
+0.306957 +0.013151 0
+0.247849 +0.010618 0
-0.423785 -0.018156 0
+0.057276 +0.002454 0
-0.727675 -0.031175 0
-0.788069 -0.033763 0
-0.331530 -0.014204 0
-0.306655 -0.013138 0
-0.583985 -0.025019 0
-0.291045 -0.012469 0
-0.554610 -0.023761 0
-0.482094 -0.020654 0
-0.558687 -0.023936 0
-0.759496 -0.032539 0
-0.892491 -0.038236 0
-0.573485 -0.024569 0
-0.533595 -0.022861 0
-0.033835 -0.001450 0
+0.018041 +0.000773 0
+0.537539 +0.023029 0
+0.547422 +0.023453 0
+0.082596 +0.003539 0
+0.151907 +0.006508 0
+0.531529 +0.022772 0
+0.497350 +0.021308 0
+0.566160 +0.024256 0
+0.463952 +0.019877 0
-0.002747 -0.000118 0
-0.090170 -0.003863 0
+0.355900 +0.015248 0
+0.257130 +0.011016 0
-0.127600 -0.005467 0
-0.118662 -0.005084 0
-0.525817 -0.022527 0
-0.406436 -0.017413 0
-0.354291 -0.015179 0
-0.219495 -0.009404 0
-0.187551 -0.008035 0
-0.356396 -0.015269 0
-0.036704 -0.001573 0
-0.066212 -0.002837 0
+0.299041 +0.012812 0
+0.383799 +0.016443 0
-0.075956 -0.003254 0
-0.067041 -0.002872 0
+0.454095 +0.019455 0
+0.507323 +0.021735 0
+0.699768 +0.029980 0
+0.730169 +0.031282 0
+0.551135 +0.023612 0
+0.426377 +0.018267 0
+0.711092 +0.030465 0
+0.654915 +0.028058 0
+0.274858 +0.011776 0
+0.125097 +0.005359 0
-0.205568 -0.008807 0
-0.388217 -0.016632 0
-0.974231 -0.041738 0
-0.991176 -0.042464 0
-0.515111 -0.022069 0
-0.565534 -0.024229 0
-0.882690 -0.037817 0
-0.663676 -0.028433 0
-1.070825 -0.045877 0
-0.801607 -0.034343 0
-0.420601 -0.018020 0
-0.427783 -0.018327 0
+0.103286 +0.004425 0
+0.203555 +0.008721 0
+0.180713 +0.007742 0
+0.354016 +0.015167 0
+0.486664 +0.020850 0
+0.599567 +0.025687 0
+0.504852 +0.021629 0
+0.624276 +0.026746 0
+0.648164 +0.027769 0
+0.631785 +0.027067 0
+0.412817 +0.017686 0
+0.339086 +0.014527 0
-0.119096 -0.005102 0
-0.375897 -0.016104 0
+0.192392 +0.008243 0
+0.000279 +0.000012 0
-0.633657 -0.027147 0
-0.847252 -0.036298 0
-0.800089 -0.034278 0
-1.051706 -0.045058 0
-1.117001 -0.047855 0
-1.155109 -0.049488 0
-1.196431 -0.051258 0
-1.207750 -0.051743 0
-1.039211 -0.044522 0
-0.783689 -0.033575 0
-0.831015 -0.035603 0
-0.637876 -0.027328 0
-0.238926 -0.010236 0
-0.346120 -0.014829 0
+0.163740 +0.007015 0
+0.331120 +0.014186 0
+0.162326 +0.006954 0
+0.243831 +0.010446 0
+0.310150 +0.013288 0
+0.402541 +0.017246 0
+0.220738 +0.009457 0
+0.092206 +0.003950 0
+0.096718 +0.004144 0
-0.292606 -0.012536 0
-0.173296 -0.007424 0
-0.489749 -0.020982 0
-0.646846 -0.027712 0
-0.937932 -0.040183 0
-0.605414 -0.025937 0
-0.557764 -0.023896 0
-0.815135 -0.034922 0
-0.894095 -0.038305 0
-0.547976 -0.023477 0
-0.433285 -0.018563 0
-0.235532 -0.010091 0
-0.132525 -0.005678 0
+0.615952 +0.026389 0
+0.703442 +0.030137 0
+0.336663 +0.014423 0
-0.029331 -0.001257 0
-0.015683 -0.000672 0
+0.088071 +0.003773 0
-0.775825 -0.033238 0
-0.435807 -0.018671 0
+0.228500 +0.009789 0
+0.351663 +0.015066 0
+0.724247 +0.031028 0
+0.405163 +0.017358 0
+0.736424 +0.031550 0
+0.898827 +0.038508 0
+0.895867 +0.038381 0
+0.550206 +0.023572 0
+0.506777 +0.021712 0
+0.753748 +0.032292 0
+0.134887 +0.005779 0
+0.227042 +0.009727 0
-0.011139 -0.000477 0
+0.349720 +0.014983 0
+0.206114 +0.008830 0
-0.038582 -0.001653 0
+0.363593 +0.015577 0
+0.399505 +0.017116 0
+0.038114 +0.001633 0
+0.172513 +0.007391 0
+0.275081 +0.011785 0
+0.084715 +0.003629 0
+0.081680 +0.003499 0
-0.461260 -0.019761 0
-0.437479 -0.018743 0
-0.254363 -0.010898 0
-0.767136 -0.032866 0
-0.313500 -0.013431 0
-0.465229 -0.019932 0
-0.009428 -0.000404 0
+0.116533 +0.004993 0
-0.068933 -0.002953 0
+0.176013 +0.007541 0
+0.132804 +0.005690 0
-0.961169 -0.041179 0
-0.566008 -0.024249 0
-0.349044 -0.014954 0
-0.867642 -0.037172 0
+0.338882 +0.014519 0
+0.180149 +0.007718 0
+0.148850 +0.006377 0
+0.208356 +0.008926 0
+0.398556 +0.017075 0
+0.181840 +0.007790 0
+0.390337 +0.016723 0
+0.499664 +0.021407 0
+0.691200 +0.029613 0
+0.580356 +0.024864 0
+0.718330 +0.030775 0
+0.831179 +0.035610 0
+0.901131 +0.038607 0
+0.696442 +0.029837 0
+0.841375 +0.036047 0
+0.738378 +0.031634 0
+0.824470 +0.035322 0
+0.918397 +0.039346 0
+0.923366 +0.039559 0
+0.842522 +0.036096 0
+0.798579 +0.034213 0
+0.638881 +0.027371 0
+0.667472 +0.028596 0
+0.446207 +0.019117 0
+0.426173 +0.018258 0
+0.639797 +0.027410 0
+0.569740 +0.024409 0
+0.365949 +0.015678 0
+0.275466 +0.011802 0
+0.229287 +0.009823 0
+0.176866 +0.007577 0
+0.058019 +0.002486 0
+0.097324 +0.004170 0
+0.107553 +0.004608 0
+0.290068 +0.012427 0
-0.004635 -0.000199 0
+0.104393 +0.004472 0
-0.019494 -0.000835 0
+0.170243 +0.007294 0
+0.289087 +0.012385 0
+0.501348 +0.021479 0
+0.387240 +0.016590 0
+0.587069 +0.025151 0
-0.036288 -0.001555 0
+0.186940 +0.008009 0
-0.031647 -0.001356 0
+0.171128 +0.007332 0
+0.390965 +0.016750 0
+0.546117 +0.023397 0
+0.323432 +0.013857 0
+0.414586 +0.017762 0
+0.008598 +0.000368 0
+0.144641 +0.006197 0
+0.066123 +0.002833 0
+0.116375 +0.004986 0
+0.222944 +0.009551 0
+0.247962 +0.010623 0
+0.124459 +0.005332 0
+0.101557 +0.004351 0
+0.095529 +0.004093 0
+0.075850 +0.003250 0
+0.053076 +0.002274 0
+0.040769 +0.001747 0
-0.131217 -0.005622 0
-0.133055 -0.005700 0
-0.238496 -0.010218 0
-0.366852 -0.015717 0
-0.649758 -0.027837 0
-0.621221 -0.026615 0
-0.360372 -0.015439 0
-0.235617 -0.010094 0
-0.474451 -0.020327 0
-0.260718 -0.011170 0
-0.817782 -0.035036 0
-0.638018 -0.027334 0
-0.631856 -0.027070 0
-0.401145 -0.017186 0
-0.408851 -0.017516 0
-0.182195 -0.007806 0
-0.194135 -0.008317 0
-0.036304 -0.001555 0
-0.215514 -0.009233 0
-0.060072 -0.002574 0
+0.145554 +0.006236 0
+0.166704 +0.007142 0
+0.039866 +0.001708 0
+0.088164 +0.003777 0
+0.148175 +0.006348 0
+0.106429 +0.004560 0
+0.234145 +0.010031 0
+0.160783 +0.006888 0
+0.086567 +0.003709 0
+0.079286 +0.003397 0
-0.287117 -0.012301 0
-0.531131 -0.022755 0
-0.570192 -0.024428 0
-0.980913 -0.042025 0
-0.811011 -0.034746 0
-0.891167 -0.038180 0
-0.982194 -0.042080 0
-0.845751 -0.036234 0
-0.836222 -0.035826 0
-0.237945 -0.010194 0
-0.640652 -0.027447 0
-0.418717 -0.017939 0
-0.056099 -0.002403 0
+0.073847 +0.003164 0
+0.294898 +0.012634 0
+0.361970 +0.015508 0
+0.315604 +0.013521 0
+0.291617 +0.012494 0
+0.268489 +0.011503 0
+0.176685 +0.007570 0
+0.093857 +0.004021 0
+0.041715 +0.001787 0
-0.354320 -0.015180 0
-0.754378 -0.032319 0
-0.450572 -0.019304 0
-0.121824 -0.005219 0
-0.663177 -0.028412 0
-0.701305 -0.030046 0
+0.424108 +0.018170 0
+0.208764 +0.008944 0
-0.242184 -0.010376 0
-0.144313 -0.006183 0
-0.237912 -0.010193 0
-0.101956 -0.004368 0
-0.599961 -0.025704 0
-0.438307 -0.018778 0
-0.377929 -0.016191 0
-0.700032 -0.029991 0
-0.198572 -0.008507 0
-0.364119 -0.015600 0
-0.161912 -0.006937 0
-0.053288 -0.002283 0
-0.003557 -0.000152 0
-0.310626 -0.013308 0
-0.108254 -0.004638 0
-0.376089 -0.016113 0
-0.840274 -0.035999 0
-0.598100 -0.025624 0
-0.811894 -0.034783 0
-0.650278 -0.027860 0
-0.875676 -0.037516 0
-0.367730 -0.015754 0
-0.286819 -0.012288 0
+0.269909 +0.011564 0
+0.151283 +0.006481 0
+0.136955 +0.005867 0
+0.398290 +0.017064 0
-0.274514 -0.011761 0
-0.005745 -0.000246 0
-0.050764 -0.002175 0
-0.558321 -0.023920 0
-0.510569 -0.021874 0
-0.235753 -0.010100 0
-0.354984 -0.015208 0
+0.616432 +0.026409 0
+0.356204 +0.015261 0
+0.641961 +0.027503 0
+0.716040 +0.030677 0
+0.177152 +0.007590 0
+0.436037 +0.018681 0
-0.008468 -0.000363 0
-0.047844 -0.002050 0
-0.056043 -0.002401 0
-0.066625 -0.002854 0
-0.132357 -0.005670 0
-0.240196 -0.010291 0
-0.315135 -0.013501 0
-0.165778 -0.007102 0
-0.130045 -0.005571 0
-0.312567 -0.013391 0
-0.202595 -0.008680 0
-0.479601 -0.020547 0
-0.514882 -0.022059 0
-0.698506 -0.029926 0
-0.620541 -0.026585 0
-0.424048 -0.018167 0
-0.226148 -0.009689 0
-0.418273 -0.017920 0
-0.176088 -0.007544 0
-0.756936 -0.032429 0
-0.544662 -0.023335 0
-0.592166 -0.025370 0
-0.323450 -0.013857 0
-0.285849 -0.012246 0
-0.085894 -0.003680 0
-0.115851 -0.004963 0
-0.018811 -0.000806 0
-0.298285 -0.012779 0
-0.101380 -0.004343 0
-0.058501 -0.002506 0
-0.014970 -0.000641 0
-0.046753 -0.002003 0
-0.136045 -0.005828 0
+0.006723 +0.000288 0
-0.062747 -0.002688 0
-0.043944 -0.001883 0
-0.231362 -0.009912 0
-0.195050 -0.008356 0
-0.352873 -0.015118 0
-0.449872 -0.019274 0
-0.628991 -0.026947 0
-0.235755 -0.010100 0
-0.511684 -0.021922 0
-0.526125 -0.022540 0
-0.783802 -0.033580 0
-0.736402 -0.031549 0
-0.830891 -0.035597 0
-0.891748 -0.038205 0
-0.815056 -0.034919 0
-0.765634 -0.032802 0
-0.876300 -0.037543 0
-0.791525 -0.033911 0
-0.699109 -0.029952 0
-0.792063 -0.033934 0
-0.563683 -0.024150 0
-0.472226 -0.020231 0
-0.224908 -0.009636 0
-0.552936 -0.023689 0
-0.335879 -0.014390 0
-0.172903 -0.007408 0
-0.120701 -0.005171 0
+0.077190 +0.003307 0
+0.064980 +0.002784 0
+0.142918 +0.006123 0
+0.207196 +0.008877 0
+0.367390 +0.015740 0
+0.293406 +0.012570 0
+0.165076 +0.007072 0
+0.009428 +0.000404 0
+0.093200 +0.003993 0
-0.202779 -0.008688 0
+0.434983 +0.018636 0
+0.200189 +0.008577 0
+0.320013 +0.013710 0
-0.035591 -0.001525 0
-0.133822 -0.005733 0
-0.489349 -0.020965 0
-0.407451 -0.017456 0
-0.688152 -0.029482 0
+0.079860 +0.003421 0
-0.293431 -0.012571 0
-0.164947 -0.007067 0
-0.419441 -0.017970 0
-0.565846 -0.024242 0
-0.654867 -0.028056 0
-0.486340 -0.020836 0
-0.375052 -0.016068 0
-0.269498 -0.011546 0
-0.308783 -0.013229 0
-0.139727 -0.005986 0
-0.184693 -0.007913 0
+0.184519 +0.007905 0
+0.320876 +0.013747 0
+0.373836 +0.016016 0
+0.664815 +0.028482 0
+0.503498 +0.021571 0
+0.534637 +0.022905 0
+0.688687 +0.029505 0
+0.574892 +0.024630 0
+0.813199 +0.034839 0
+0.798284 +0.034200 0
+0.699700 +0.029977 0
+0.441113 +0.018898 0
+0.551709 +0.023637 0
+0.198624 +0.008510 0
+0.641828 +0.027497 0
+0.400414 +0.017155 0
+0.307736 +0.013184 0
-0.039735 -0.001702 0
+0.065746 +0.002817 0
-0.137173 -0.005877 0
+0.133698 +0.005728 0
-0.045365 -0.001944 0
