# vtk DataFile Version 2.0
MyTitle
ASCII
DATASET UNSTRUCTURED_GRID
POINTS 601 double
2.000000 0.000000 0.000000
2.000000 1.000000 0.000000
3.000000 1.000000 0.000000
2.000000 2.000000 0.000000
1.000000 2.000000 0.000000
1.000000 3.000000 0.000000
0.000000 3.000000 0.000000
0.000000 2.000000 0.000000
1.000000 1.000000 0.000000
1.500000 1.500000 0.000000
2.500000 1.500000 0.000000
2.000000 0.166667 0.000000
2.000000 0.333333 0.000000
2.000000 0.500000 0.000000
2.000000 0.666667 0.000000
2.000000 0.833333 0.000000
2.000000 0.083333 0.000000
2.000000 0.250000 0.000000
2.000000 0.416667 0.000000
2.000000 0.583333 0.000000
2.000000 0.750000 0.000000
2.000000 0.916667 0.000000
2.166667 1.000000 0.000000
2.333333 1.000000 0.000000
2.500000 1.000000 0.000000
2.666667 1.000000 0.000000
2.833333 1.000000 0.000000
2.083333 1.000000 0.000000
2.250000 1.000000 0.000000
2.416667 1.000000 0.000000
2.583333 1.000000 0.000000
2.750000 1.000000 0.000000
2.916667 1.000000 0.000000
2.916667 1.083333 0.000000
2.833333 1.166667 0.000000
2.750000 1.250000 0.000000
2.666667 1.333333 0.000000
2.583333 1.416667 0.000000
2.958333 1.041667 0.000000
2.875000 1.125000 0.000000
2.791667 1.208333 0.000000
2.708333 1.291667 0.000000
2.625000 1.375000 0.000000
2.541667 1.458333 0.000000
1.833333 2.000000 0.000000
1.666667 2.000000 0.000000
1.500000 2.000000 0.000000
1.333333 2.000000 0.000000
1.166667 2.000000 0.000000
1.916667 2.000000 0.000000
1.750000 2.000000 0.000000
1.583333 2.000000 0.000000
1.416667 2.000000 0.000000
1.250000 2.000000 0.000000
1.083333 2.000000 0.000000
1.000000 2.166667 0.000000
1.000000 2.333333 0.000000
1.000000 2.500000 0.000000
1.000000 2.666667 0.000000
1.000000 2.833333 0.000000
1.000000 2.083333 0.000000
1.000000 2.250000 0.000000
1.000000 2.416667 0.000000
1.000000 2.583333 0.000000
1.000000 2.750000 0.000000
1.000000 2.916667 0.000000
0.833333 3.000000 0.000000
0.666667 3.000000 0.000000
0.500000 3.000000 0.000000
0.333333 3.000000 0.000000
0.166667 3.000000 0.000000
0.916667 3.000000 0.000000
0.750000 3.000000 0.000000
0.583333 3.000000 0.000000
0.416667 3.000000 0.000000
0.250000 3.000000 0.000000
0.083333 3.000000 0.000000
0.000000 2.833333 0.000000
0.000000 2.666667 0.000000
0.000000 2.500000 0.000000
0.000000 2.333333 0.000000
0.000000 2.166667 0.000000
0.000000 2.916667 0.000000
0.000000 2.750000 0.000000
0.000000 2.583333 0.000000
0.000000 2.416667 0.000000
0.000000 2.250000 0.000000
0.000000 2.083333 0.000000
0.166667 1.833333 0.000000
0.333333 1.666667 0.000000
0.500000 1.500000 0.000000
0.666667 1.333333 0.000000
0.833333 1.166667 0.000000
0.083333 1.916667 0.000000
0.250000 1.750000 0.000000
0.416667 1.583333 0.000000
0.583333 1.416667 0.000000
0.750000 1.250000 0.000000
0.916667 1.083333 0.000000
1.166667 0.833333 0.000000
1.333333 0.666667 0.000000
1.500000 0.500000 0.000000
1.666667 0.333333 0.000000
1.833333 0.166667 0.000000
1.083333 0.916667 0.000000
1.250000 0.750000 0.000000
1.416667 0.583333 0.000000
1.583333 0.416667 0.000000
1.750000 0.250000 0.000000
1.916667 0.083333 0.000000
1.916667 1.083333 0.000000
1.833333 1.166667 0.000000
1.750000 1.250000 0.000000
1.666667 1.333333 0.000000
1.583333 1.416667 0.000000
1.958333 1.041667 0.000000
1.875000 1.125000 0.000000
1.791667 1.208333 0.000000
1.708333 1.291667 0.000000
1.625000 1.375000 0.000000
1.541667 1.458333 0.000000
0.833333 2.000000 0.000000
0.666667 2.000000 0.000000
0.500000 2.000000 0.000000
0.333333 2.000000 0.000000
0.166667 2.000000 0.000000
0.916667 2.000000 0.000000
0.750000 2.000000 0.000000
0.583333 2.000000 0.000000
0.416667 2.000000 0.000000
0.250000 2.000000 0.000000
0.083333 2.000000 0.000000
1.416667 1.583333 0.000000
1.333333 1.666667 0.000000
1.250000 1.750000 0.000000
1.166667 1.833333 0.000000
1.083333 1.916667 0.000000
1.458333 1.541667 0.000000
1.375000 1.625000 0.000000
1.291667 1.708333 0.000000
1.208333 1.791667 0.000000
1.125000 1.875000 0.000000
1.041667 1.958333 0.000000
1.416667 1.416667 0.000000
1.333333 1.333333 0.000000
1.250000 1.250000 0.000000
1.166667 1.166667 0.000000
1.083333 1.083333 0.000000
1.458333 1.458333 0.000000
1.375000 1.375000 0.000000
1.291667 1.291667 0.000000
1.208333 1.208333 0.000000
1.125000 1.125000 0.000000
1.041667 1.041667 0.000000
2.416667 1.583333 0.000000
2.333333 1.666667 0.000000
2.250000 1.750000 0.000000
2.166667 1.833333 0.000000
2.083333 1.916667 0.000000
2.458333 1.541667 0.000000
2.375000 1.625000 0.000000
2.291667 1.708333 0.000000
2.208333 1.791667 0.000000
2.125000 1.875000 0.000000
2.041667 1.958333 0.000000
2.333333 1.500000 0.000000
2.166667 1.500000 0.000000
2.000000 1.500000 0.000000
1.833333 1.500000 0.000000
1.666667 1.500000 0.000000
2.416667 1.500000 0.000000
2.250000 1.500000 0.000000
2.083333 1.500000 0.000000
1.916667 1.500000 0.000000
1.750000 1.500000 0.000000
1.583333 1.500000 0.000000
2.166667 1.166667 0.000000
2.000000 1.333333 0.000000
2.500000 1.166667 0.000000
2.333333 1.333333 0.000000
2.250000 1.083333 0.000000
2.000000 1.166667 0.000000
2.083333 1.083333 0.000000
2.083333 1.250000 0.000000
1.833333 1.333333 0.000000
1.916667 1.250000 0.000000
1.916667 1.416667 0.000000
1.750000 1.416667 0.000000
2.583333 1.083333 0.000000
2.333333 1.166667 0.000000
2.416667 1.083333 0.000000
2.416667 1.250000 0.000000
2.166667 1.333333 0.000000
2.250000 1.250000 0.000000
2.250000 1.416667 0.000000
2.083333 1.416667 0.000000
2.666667 1.166667 0.000000
2.750000 1.083333 0.000000
2.500000 1.333333 0.000000
2.583333 1.250000 0.000000
2.416667 1.416667 0.000000
2.125000 1.041667 0.000000
2.000000 1.083333 0.000000
2.291667 1.041667 0.000000
2.166667 1.083333 0.000000
2.208333 1.125000 0.000000
2.083333 1.166667 0.000000
2.041667 1.125000 0.000000
1.916667 1.166667 0.000000
1.958333 1.208333 0.000000
1.833333 1.250000 0.000000
2.125000 1.208333 0.000000
2.000000 1.250000 0.000000
2.041667 1.291667 0.000000
1.916667 1.333333 0.000000
1.875000 1.291667 0.000000
1.750000 1.333333 0.000000
1.791667 1.375000 0.000000
1.666667 1.416667 0.000000
1.958333 1.375000 0.000000
1.833333 1.416667 0.000000
1.875000 1.458333 0.000000
1.708333 1.458333 0.000000
2.458333 1.041667 0.000000
2.333333 1.083333 0.000000
2.625000 1.041667 0.000000
2.500000 1.083333 0.000000
2.541667 1.125000 0.000000
2.416667 1.166667 0.000000
2.375000 1.125000 0.000000
2.250000 1.166667 0.000000
2.291667 1.208333 0.000000
2.166667 1.250000 0.000000
2.458333 1.208333 0.000000
2.333333 1.250000 0.000000
2.375000 1.291667 0.000000
2.250000 1.333333 0.000000
2.208333 1.291667 0.000000
2.083333 1.333333 0.000000
2.125000 1.375000 0.000000
2.000000 1.416667 0.000000
2.291667 1.375000 0.000000
2.166667 1.416667 0.000000
2.208333 1.458333 0.000000
2.041667 1.458333 0.000000
2.791667 1.041667 0.000000
2.666667 1.083333 0.000000
2.833333 1.083333 0.000000
2.750000 1.166667 0.000000
2.708333 1.125000 0.000000
2.583333 1.166667 0.000000
2.625000 1.208333 0.000000
2.500000 1.250000 0.000000
2.666667 1.250000 0.000000
2.583333 1.333333 0.000000
2.541667 1.291667 0.000000
2.416667 1.333333 0.000000
2.458333 1.375000 0.000000
2.333333 1.416667 0.000000
2.500000 1.416667 0.000000
2.375000 1.458333 0.000000
2.000000 1.666667 0.000000
1.833333 1.833333 0.000000
1.666667 1.666667 0.000000
1.500000 1.833333 0.000000
2.166667 1.666667 0.000000
2.083333 1.583333 0.000000
2.250000 1.583333 0.000000
2.000000 1.833333 0.000000
1.916667 1.750000 0.000000
2.083333 1.750000 0.000000
1.750000 1.916667 0.000000
1.916667 1.916667 0.000000
1.833333 1.666667 0.000000
1.750000 1.583333 0.000000
1.916667 1.583333 0.000000
1.666667 1.833333 0.000000
1.583333 1.750000 0.000000
1.750000 1.750000 0.000000
1.416667 1.916667 0.000000
1.583333 1.916667 0.000000
1.500000 1.666667 0.000000
1.583333 1.583333 0.000000
1.333333 1.833333 0.000000
1.416667 1.750000 0.000000
1.250000 1.916667 0.000000
2.333333 1.583333 0.000000
2.291667 1.541667 0.000000
2.250000 1.666667 0.000000
2.208333 1.625000 0.000000
2.083333 1.666667 0.000000
2.041667 1.625000 0.000000
2.166667 1.583333 0.000000
2.125000 1.541667 0.000000
2.166667 1.750000 0.000000
2.125000 1.708333 0.000000
2.083333 1.833333 0.000000
2.041667 1.791667 0.000000
1.916667 1.833333 0.000000
1.875000 1.791667 0.000000
2.000000 1.750000 0.000000
1.958333 1.708333 0.000000
2.000000 1.916667 0.000000
1.958333 1.875000 0.000000
1.875000 1.958333 0.000000
1.708333 1.958333 0.000000
1.833333 1.916667 0.000000
1.791667 1.875000 0.000000
2.000000 1.583333 0.000000
1.958333 1.541667 0.000000
1.916667 1.666667 0.000000
1.875000 1.625000 0.000000
1.750000 1.666667 0.000000
1.708333 1.625000 0.000000
1.833333 1.583333 0.000000
1.791667 1.541667 0.000000
1.833333 1.750000 0.000000
1.791667 1.708333 0.000000
1.750000 1.833333 0.000000
1.708333 1.791667 0.000000
1.583333 1.833333 0.000000
1.541667 1.791667 0.000000
1.666667 1.750000 0.000000
1.625000 1.708333 0.000000
1.666667 1.916667 0.000000
1.625000 1.875000 0.000000
1.541667 1.958333 0.000000
1.375000 1.958333 0.000000
1.500000 1.916667 0.000000
1.458333 1.875000 0.000000
1.666667 1.583333 0.000000
1.625000 1.541667 0.000000
1.583333 1.666667 0.000000
1.541667 1.625000 0.000000
1.416667 1.666667 0.000000
1.500000 1.583333 0.000000
1.500000 1.750000 0.000000
1.458333 1.708333 0.000000
1.416667 1.833333 0.000000
1.375000 1.791667 0.000000
1.250000 1.833333 0.000000
1.333333 1.750000 0.000000
1.333333 1.916667 0.000000
1.291667 1.875000 0.000000
1.208333 1.958333 0.000000
1.166667 1.916667 0.000000
0.666667 2.333333 0.000000
0.333333 2.333333 0.000000
0.666667 2.666667 0.000000
0.333333 2.666667 0.000000
0.833333 2.333333 0.000000
0.666667 2.166667 0.000000
0.833333 2.166667 0.000000
0.500000 2.333333 0.000000
0.333333 2.166667 0.000000
0.500000 2.166667 0.000000
0.166667 2.333333 0.000000
0.166667 2.166667 0.000000
0.833333 2.666667 0.000000
0.666667 2.500000 0.000000
0.833333 2.500000 0.000000
0.500000 2.666667 0.000000
0.333333 2.500000 0.000000
0.500000 2.500000 0.000000
0.166667 2.666667 0.000000
0.166667 2.500000 0.000000
0.666667 2.833333 0.000000
[...]
POINT_DATA 601
VECTORS sol double
+0.000000 +0.000000 0
+0.000000 +0.000000 0
+0.000000 +0.000000 0
+0.000000 +0.000000 0
+0.000000 +0.000000 0
+0.000000 +0.000000 0
+0.000000 +0.000000 0
+0.000000 +0.000000 0
+0.000000 +0.000000 0
+0.114874 +0.008569 0
+0.000000 +0.000000 0
+0.000000 +0.000000 0
+0.000000 +0.000000 0
+0.000000 +0.000000 0
+0.000000 +0.000000 0
+0.000000 +0.000000 0
+0.000000 +0.000000 0
+0.000000 +0.000000 0
+0.000000 +0.000000 0
+0.000000 +0.000000 0
+0.000000 +0.000000 0
+0.000000 +0.000000 0
+0.000000 +0.000000 0
+0.000000 +0.000000 0
+0.000000 +0.000000 0
+0.000000 +0.000000 0
+0.000000 +0.000000 0
+0.000000 +0.000000 0
+0.000000 +0.000000 0
+0.000000 +0.000000 0
+0.000000 +0.000000 0
+0.000000 +0.000000 0
+0.000000 +0.000000 0
+0.000000 +0.000000 0
+0.000000 +0.000000 0
+0.000000 +0.000000 0
+0.000000 +0.000000 0
+0.000000 +0.000000 0
+0.000000 +0.000000 0
+0.000000 +0.000000 0
+0.000000 +0.000000 0
+0.000000 +0.000000 0
+0.000000 +0.000000 0
+0.000000 +0.000000 0
+0.000000 +0.000000 0
+0.000000 +0.000000 0
+0.000000 +0.000000 0
+0.000000 +0.000000 0
+0.000000 +0.000000 0
+0.000000 +0.000000 0
+0.000000 +0.000000 0
+0.000000 +0.000000 0
+0.000000 +0.000000 0
+0.000000 +0.000000 0
+0.000000 +0.000000 0
+0.000000 +0.000000 0
+0.000000 +0.000000 0
+0.000000 +0.000000 0
+0.000000 +0.000000 0
+0.000000 +0.000000 0
+0.000000 +0.000000 0
+0.000000 +0.000000 0
+0.000000 +0.000000 0
+0.000000 +0.000000 0
+0.000000 +0.000000 0
+0.000000 +0.000000 0
+0.000000 +0.000000 0
+0.000000 +0.000000 0
+0.000000 +0.000000 0
+0.000000 +0.000000 0
+0.000000 +0.000000 0
+0.000000 +0.000000 0
+0.000000 +0.000000 0
+0.000000 +0.000000 0
+0.000000 +0.000000 0
+0.000000 +0.000000 0
+0.000000 +0.000000 0
+0.000000 +0.000000 0
+0.000000 +0.000000 0
+0.000000 +0.000000 0
+0.000000 +0.000000 0
+0.000000 +0.000000 0
+0.000000 +0.000000 0
+0.000000 +0.000000 0
+0.000000 +0.000000 0
+0.000000 +0.000000 0
+0.000000 +0.000000 0
+0.000000 +0.000000 0
+0.000000 +0.000000 0
+0.000000 +0.000000 0
+0.000000 +0.000000 0
+0.000000 +0.000000 0
+0.000000 +0.000000 0
+0.000000 +0.000000 0
+0.000000 +0.000000 0
+0.000000 +0.000000 0
+0.000000 +0.000000 0
+0.000000 +0.000000 0
+0.000000 +0.000000 0
+0.000000 +0.000000 0
+0.000000 +0.000000 0
+0.000000 +0.000000 0
+0.000000 +0.000000 0
+0.000000 +0.000000 0
+0.000000 +0.000000 0
+0.000000 +0.000000 0
+0.000000 +0.000000 0
+0.000000 +0.000000 0
+0.000000 +0.000000 0
+0.000000 +0.000000 0
+0.176189 +0.013143 0
+0.186935 +0.013944 0
+0.115280 +0.008599 0
+0.034879 +0.002602 0
+0.021373 +0.001594 0
+0.103084 +0.007690 0
+0.198667 +0.014820 0
+0.158205 +0.011801 0
+0.072165 +0.005383 0
+0.017194 +0.001283 0
+0.055029 +0.004105 0
+0.446571 +0.033312 0
+0.116137 +0.008663 0
-0.484066 -0.036109 0
-0.787247 -0.058725 0
-0.494383 -0.036879 0
+0.337703 +0.025191 0
+0.355392 +0.026511 0
-0.183777 -0.013709 0
-0.703999 -0.052515 0
-0.712385 -0.053141 0
-0.229090 -0.017089 0
+0.298808 +0.022290 0
+0.503827 +0.037583 0
+0.635859 +0.047432 0
+0.616418 +0.045982 0
+0.410772 +0.030642 0
+0.198875 +0.014835 0
+0.403877 +0.030127 0
+0.583942 +0.043559 0
+0.647614 +0.048309 0
+0.539549 +0.040248 0
+0.214895 +0.016030 0
-0.548450 -0.040912 0
-1.146586 -0.085530 0
-1.455618 -0.108582 0
-1.335879 -0.099650 0
-0.796048 -0.059382 0
-0.209038 -0.015593 0
-0.870592 -0.064942 0
-1.350432 -0.100736 0
-1.455722 -0.108590 0
-1.115568 -0.083216 0
-0.419006 -0.031256 0
+0.000000 +0.000000 0
+0.000000 +0.000000 0
+0.000000 +0.000000 0
+0.000000 +0.000000 0
+0.000000 +0.000000 0
+0.000000 +0.000000 0
+0.000000 +0.000000 0
+0.000000 +0.000000 0
+0.000000 +0.000000 0
+0.000000 +0.000000 0
+0.000000 +0.000000 0
-0.517807 -0.038626 0
-0.633359 -0.047246 0
-0.249688 -0.018626 0
+0.266196 +0.019857 0
+0.431288 +0.032172 0
-0.284252 -0.021204 0
-0.644317 -0.048063 0
-0.489677 -0.036528 0
+0.025655 +0.001914 0
+0.413295 +0.030830 0
+0.320194 +0.023885 0
-0.635394 -0.047397 0
-0.472121 -0.035218 0
-0.441736 -0.032951 0
-0.873593 -0.065166 0
-0.383190 -0.028584 0
-0.269857 -0.020130 0
-0.231818 -0.017293 0
-0.662594 -0.049426 0
+0.009683 +0.000722 0
-0.161640 -0.012058 0
-0.130996 -0.009772 0
+0.215760 +0.016095 0
-0.173741 -0.012960 0
-0.673881 -0.050268 0
-0.324775 -0.024227 0
-0.711696 -0.053089 0
-0.894981 -0.066761 0
-0.897158 -0.066924 0
-0.851133 -0.063491 0
-0.656616 -0.048981 0
-0.152878 -0.011404 0
-0.044579 -0.003325 0
-0.453645 -0.033840 0
-0.305838 -0.022814 0
-0.537920 -0.040126 0
-0.157353 -0.011738 0
-0.079049 -0.005897 0
-0.193585 -0.014441 0
-0.341402 -0.025467 0
-0.534732 -0.039889 0
-0.486948 -0.036324 0
-0.277401 -0.020693 0
-0.015669 -0.001169 0
-0.226099 -0.016866 0
+0.041508 +0.003096 0
-0.681379 -0.050828 0
-0.420904 -0.031398 0
-0.592412 -0.044191 0
-0.202479 -0.015104 0
-0.080238 -0.005985 0
+0.101462 +0.007569 0
+0.111509 +0.008318 0
+0.189400 +0.014128 0
-0.314486 -0.023459 0
+0.097741 +0.007291 0
+0.067918 +0.005066 0
+0.325457 +0.024278 0
-0.149381 -0.011143 0
-0.371929 -0.027744 0
-0.070251 -0.005240 0
-0.252784 -0.018857 0
-0.299562 -0.022346 0
-0.579728 -0.043245 0
-0.505921 -0.037739 0
-0.698359 -0.052094 0
-0.810089 -0.060429 0
-0.833424 -0.062170 0
-0.582977 -0.043487 0
-0.850792 -0.063465 0
-0.812551 -0.060613 0
-0.948023 -0.070718 0
-0.928442 -0.069258 0
-0.723890 -0.053999 0
-0.803899 -0.059967 0
-0.406381 -0.030314 0
-0.888878 -0.066306 0
-0.818301 -0.061041 0
-0.765853 -0.057129 0
-0.468179 -0.034924 0
-0.015025 -0.001121 0
-0.099661 -0.007434 0
-0.012422 -0.000927 0
-0.053384 -0.003982 0
-0.090521 -0.006752 0
-0.288951 -0.021554 0
-0.225207 -0.016799 0
-0.515113 -0.038425 0
-0.123528 -0.009215 0
-0.204405 -0.015248 0
-0.382954 -0.028567 0
-0.694310 -0.051792 0
-0.506377 -0.037773 0
-0.749380 -0.055900 0
-0.266903 -0.019910 0
-0.542523 -0.040470 0
+0.110973 +0.008278 0
+0.503278 +0.037542 0
+0.841811 +0.062795 0
+0.708979 +0.052887 0
-0.181734 -0.013557 0
-0.277341 -0.020688 0
-0.387909 -0.028936 0
+0.190845 +0.014236 0
+0.406648 +0.030334 0
+0.037360 +0.002787 0
+0.352480 +0.026293 0
+0.192233 +0.014340 0
+0.585550 +0.043679 0
+0.619969 +0.046247 0
+0.208655 +0.015565 0
+0.702277 +0.052387 0
+0.874388 +0.065225 0
+0.768737 +0.057344 0
+0.389691 +0.029069 0
+0.411839 +0.030721 0
+0.743632 +0.055471 0
+0.621931 +0.046393 0
+0.625131 +0.046632 0
+0.753377 +0.056198 0
+0.363873 +0.027143 0
-0.243959 -0.018198 0
-0.466469 -0.034796 0
-0.153614 -0.011459 0
-0.292462 -0.021816 0
-0.084210 -0.006282 0
-0.079772 -0.005951 0
-0.399234 -0.029781 0
-0.467836 -0.034898 0
-0.039419 -0.002940 0
-0.070495 -0.005259 0
+0.060242 +0.004494 0
+0.126820 +0.009460 0
+0.349104 +0.026042 0
+0.486191 +0.036268 0
+0.200501 +0.014956 0
+0.278557 +0.020779 0
+0.099628 +0.007432 0
+0.216118 +0.016121 0
+0.127370 +0.009501 0
+0.193400 +0.014427 0
+0.284183 +0.021199 0
+0.459233 +0.034257 0
-0.055950 -0.004174 0
-0.018260 -0.001362 0
+0.353490 +0.026369 0
+0.416170 +0.031044 0
+0.758818 +0.056604 0
+0.753031 +0.056173 0
+0.452919 +0.033786 0
+0.455869 +0.034006 0
+0.610303 +0.045526 0
+0.707678 +0.052789 0
+0.627139 +0.046782 0
+0.767922 +0.057283 0
+0.726433 +0.054189 0
+0.814485 +0.060757 0
+0.858690 +0.064054 0
+0.884036 +0.065945 0
+0.394977 +0.029463 0
+0.580199 +0.043280 0
+0.212055 +0.015818 0
+0.196208 +0.014636 0
+0.406573 +0.030328 0
+0.563357 +0.042024 0
+0.677529 +0.050541 0
+0.532857 +0.039749 0
+0.830013 +0.061915 0
+0.694073 +0.051775 0
+0.619310 +0.046198 0
+0.479042 +0.035734 0
+0.829451 +0.061873 0
+0.763961 +0.056988 0
+0.667025 +0.049757 0
+0.706319 +0.052688 0
+0.603174 +0.044994 0
+0.678373 +0.050603 0
+0.370304 +0.027623 0
+0.508393 +0.037924 0
+0.193845 +0.014460 0
+0.377125 +0.028132 0
+0.072145 +0.005382 0
-0.779969 -0.058182 0
+0.796442 +0.059411 0
+0.289325 +0.021582 0
+0.237683 +0.017730 0
-0.115168 -0.008591 0
+0.187773 +0.014007 0
-0.423605 -0.031599 0
-1.039376 -0.077533 0
-0.707043 -0.052742 0
-0.615483 -0.045912 0
-0.745351 -0.055600 0
+0.568561 +0.042412 0
+0.517284 +0.038587 0
+0.453549 +0.033833 0
+0.625317 +0.046646 0
-0.191429 -0.014280 0
+0.183223 +0.013668 0
+0.061415 +0.004581 0
-0.255390 -0.019051 0
+0.599652 +0.044731 0
+0.402519 +0.030026 0
+0.335348 +0.025015 0
+0.539370 +0.040235 0
+0.138210 +0.010310 0
+0.129315 +0.009646 0
+0.267670 +0.019967 0
+0.151670 +0.011314 0
+0.176738 +0.013184 0
+0.213664 +0.015938 0
-0.073965 -0.005517 0
+0.098592 +0.007354 0
-0.041753 -0.003115 0
-0.407952 -0.030431 0
-0.652417 -0.048667 0
-0.159898 -0.011928 0
-0.629460 -0.046955 0
-0.652083 -0.048642 0
-0.973070 -0.072587 0
-0.940523 -0.070159 0
-0.970515 -0.072396 0
-0.972945 -0.072577 0
-0.675834 -0.050414 0
-0.771813 -0.057574 0
-0.725373 -0.054109 0
-0.341690 -0.025489 0
-0.408499 -0.030472 0
+0.256912 +0.019164 0
+0.341196 +0.025452 0
+0.310227 +0.023141 0
+0.539893 +0.040274 0
+0.738447 +0.055085 0
+0.705328 +0.052614 0
+0.546158 +0.040741 0
+0.287051 +0.021413 0
+0.383533 +0.028610 0
-0.132584 -0.009890 0
+0.752493 +0.056132 0
+0.456807 +0.034076 0
+0.459534 +0.034279 0
+0.090551 +0.006755 0
-0.025836 -0.001927 0
-0.502277 -0.037468 0
-0.272731 -0.020344 0
-0.448533 -0.033459 0
+0.152501 +0.011376 0
-0.074961 -0.005592 0
+0.017239 +0.001286 0
-0.152603 -0.011383 0
+0.216727 +0.016167 0
+0.524750 +0.039144 0
+0.219182 +0.016350 0
+0.330392 +0.024646 0
+0.535688 +0.039960 0
+0.764672 +0.057041 0
+0.598806 +0.044668 0
+0.656938 +0.049005 0
+0.304159 +0.022689 0
+0.196753 +0.014677 0
+0.446122 +0.033279 0
+0.374619 +0.027945 0
+0.230316 +0.017181 0
+0.134687 +0.010047 0
+0.085541 +0.006381 0
+0.064039 +0.004777 0
+0.868394 +0.064778 0
-0.073674 -0.005496 0
+0.448843 +0.033482 0
-0.111884 -0.008346 0
+0.653482 +0.048747 0
+0.751086 +0.056028 0
+0.660126 +0.049242 0
+0.605146 +0.045141 0
+0.176843 +0.013192 0
+0.591271 +0.044106 0
-0.808908 -0.060341 0
-0.283580 -0.021154 0
-0.178533 -0.013318 0
+0.766639 +0.057188 0
+0.278924 +0.020806 0
+0.519902 +0.038782 0
-0.165094 -0.012315 0
+0.611711 +0.045631 0
-0.983288 -0.073349 0
-1.078006 -0.080414 0
+0.114373 +0.008532 0
-0.313392 -0.023378 0
-0.014329 -0.001069 0
+0.296129 +0.022090 0
-0.564621 -0.042118 0
+0.543183 +0.040519 0
+0.506205 +0.037761 0
+0.420692 +0.031382 0
+0.709633 +0.052935 0
+0.816732 +0.060924 0
+0.827810 +0.061751 0
+0.725057 +0.054086 0
+0.678754 +0.050632 0
+0.709650 +0.052937 0
+0.605311 +0.045153 0
+0.798746 +0.059583 0
+0.591828 +0.044148 0
+0.300738 +0.022434 0
+0.034439 +0.002569 0
+0.404974 +0.030209 0
+0.339016 +0.025289 0
-0.062958 -0.004696 0
+0.014999 +0.001119 0
-0.464372 -0.034640 0
-0.567221 -0.042312 0
-1.051236 -0.078417 0
-0.452023 -0.033719 0
-0.101749 -0.007590 0
+0.504604 +0.037641 0
-0.528455 -0.039420 0
+0.033140 +0.002472 0
+0.174669 +0.013030 0
+0.628410 +0.046877 0
+0.588384 +0.043891 0
+0.851440 +0.063514 0
+0.781198 +0.058274 0
+0.615845 +0.045939 0
+0.579996 +0.043265 0
+0.584609 +0.043609 0
+0.278617 +0.020784 0
-0.151404 -0.011294 0
+0.281286 +0.020983 0
-0.141318 -0.010542 0
-0.648584 -0.048381 0
-0.986558 -0.073593 0
-0.565646 -0.042195 0
-1.079258 -0.080508 0
-1.268237 -0.094605 0
-1.370443 -0.102229 0
-0.471164 -0.035147 0
-0.306163 -0.022838 0
-0.210809 -0.015725 0
+0.016009 +0.001194 0
-0.101211 -0.007550 0
+0.268567 +0.020034 0
+0.263881 +0.019684 0
+0.426489 +0.031814 0
+0.152988 +0.011412 0
+0.013861 +0.001034 0
+0.202128 +0.015078 0
-0.058239 -0.004344 0
-0.292892 -0.021848 0
-0.807817 -0.060259 0
-0.286565 -0.021376 0
-0.755403 -0.056350 0
-0.056173 -0.004190 0
+1.078349 +0.080440 0
+0.316251 +0.023591 0
+1.087388 +0.081114 0
-0.845108 -0.063041 0
-0.104463 -0.007792 0
-0.475398 -0.035463 0
+0.750581 +0.055990 0
+0.635118 +0.047377 0
+0.356981 +0.026629 0
+0.734998 +0.054827 0
+0.514898 +0.038409 0
-0.778028 -0.058037 0
+0.136574 +0.010188 0
-0.954627 -0.071211 0
+1.114114 +0.083108 0
+1.281372 +0.095584 0
+1.086550 +0.081052 0
+0.487130 +0.036338 0
+0.721167 +0.053796 0
+0.300502 +0.022416 0
-0.405629 -0.030258 0
+0.564766 +0.042129 0
+0.711227 +0.053054 0
+0.184489 +0.013762 0
-0.555565 -0.041443 0
-0.231542 -0.017272 0
-1.076480 -0.080300 0
-0.686865 -0.051237 0
-0.487378 -0.036356 0
-0.105227 -0.007849 0
-0.317613 -0.023692 0
-0.056755 -0.004234 0
+0.130490 +0.009734 0
+0.206589 +0.015411 0
+0.379718 +0.028325 0
+0.545009 +0.040655 0
+0.997893 +0.074438 0
+0.872417 +0.065078 0
+0.533463 +0.039794 0
+0.396767 +0.029597 0
+0.632869 +0.047209 0
+0.360025 +0.026856 0
+0.984856 +0.073466 0
+0.652165 +0.048649 0
+0.381882 +0.028487 0
+0.304744 +0.022733 0
-1.314044 -0.098022 0
-0.938221 -0.069987 0
-1.168390 -0.087156 0
-0.900745 -0.067191 0
-0.248140 -0.018510 0
+0.241208 +0.017993 0
-0.442218 -0.032987 0
+0.029677 +0.002214 0
+0.679170 +0.050663 0
+0.943890 +0.070410 0
+0.804361 +0.060002 0
+1.154500 +0.086120 0
+1.209060 +0.090190 0
+1.238535 +0.092389 0
+1.297989 +0.096824 0
+1.226569 +0.091496 0
+1.068854 +0.079732 0
+0.761132 +0.056777 0
+0.816172 +0.060883 0
+0.623286 +0.046494 0
+0.189439 +0.014131 0
+0.332287 +0.024787 0
-0.676794 -0.050486 0
-0.608672 -0.045404 0
-0.196722 -0.014675 0
+0.189361 +0.014125 0
-0.052578 -0.003922 0
+0.344613 +0.025707 0
+0.577778 +0.043100 0
+0.968834 +0.072271 0
+0.379051 +0.028275 0
+0.261902 +0.019537 0
+0.700249 +0.052235 0
+0.853222 +0.063646 0
+0.368158 +0.027463 0
+0.327417 +0.024424 0
+0.067181 +0.005011 0
+0.054135 +0.004038 0
