# vtk DataFile Version 2.0
MyTitle
ASCII
DATASET UNSTRUCTURED_GRID
POINTS 601 double
2.000000 0.000000 0.000000
2.000000 1.000000 0.000000
3.000000 1.000000 0.000000
2.000000 2.000000 0.000000
1.000000 2.000000 0.000000
1.000000 3.000000 0.000000
0.000000 3.000000 0.000000
0.000000 2.000000 0.000000
1.000000 1.000000 0.000000
1.500000 1.500000 0.000000
2.500000 1.500000 0.000000
2.000000 0.166667 0.000000
2.000000 0.333333 0.000000
2.000000 0.500000 0.000000
2.000000 0.666667 0.000000
2.000000 0.833333 0.000000
2.000000 0.083333 0.000000
2.000000 0.250000 0.000000
2.000000 0.416667 0.000000
2.000000 0.583333 0.000000
2.000000 0.750000 0.000000
2.000000 0.916667 0.000000
2.166667 1.000000 0.000000
2.333333 1.000000 0.000000
2.500000 1.000000 0.000000
2.666667 1.000000 0.000000
2.833333 1.000000 0.000000
2.083333 1.000000 0.000000
2.250000 1.000000 0.000000
2.416667 1.000000 0.000000
2.583333 1.000000 0.000000
2.750000 1.000000 0.000000
2.916667 1.000000 0.000000
2.916667 1.083333 0.000000
2.833333 1.166667 0.000000
2.750000 1.250000 0.000000
2.666667 1.333333 0.000000
2.583333 1.416667 0.000000
2.958333 1.041667 0.000000
2.875000 1.125000 0.000000
2.791667 1.208333 0.000000
2.708333 1.291667 0.000000
2.625000 1.375000 0.000000
2.541667 1.458333 0.000000
1.833333 2.000000 0.000000
1.666667 2.000000 0.000000
1.500000 2.000000 0.000000
1.333333 2.000000 0.000000
1.166667 2.000000 0.000000
1.916667 2.000000 0.000000
1.750000 2.000000 0.000000
1.583333 2.000000 0.000000
1.416667 2.000000 0.000000
1.250000 2.000000 0.000000
1.083333 2.000000 0.000000
1.000000 2.166667 0.000000
1.000000 2.333333 0.000000
1.000000 2.500000 0.000000
1.000000 2.666667 0.000000
1.000000 2.833333 0.000000
1.000000 2.083333 0.000000
1.000000 2.250000 0.000000
1.000000 2.416667 0.000000
1.000000 2.583333 0.000000
1.000000 2.750000 0.000000
1.000000 2.916667 0.000000
0.833333 3.000000 0.000000
0.666667 3.000000 0.000000
0.500000 3.000000 0.000000
0.333333 3.000000 0.000000
0.166667 3.000000 0.000000
0.916667 3.000000 0.000000
0.750000 3.000000 0.000000
0.583333 3.000000 0.000000
0.416667 3.000000 0.000000
0.250000 3.000000 0.000000
0.083333 3.000000 0.000000
0.000000 2.833333 0.000000
0.000000 2.666667 0.000000
0.000000 2.500000 0.000000
0.000000 2.333333 0.000000
0.000000 2.166667 0.000000
0.000000 2.916667 0.000000
0.000000 2.750000 0.000000
0.000000 2.583333 0.000000
0.000000 2.416667 0.000000
0.000000 2.250000 0.000000
0.000000 2.083333 0.000000
0.166667 1.833333 0.000000
0.333333 1.666667 0.000000
0.500000 1.500000 0.000000
0.666667 1.333333 0.000000
0.833333 1.166667 0.000000
0.083333 1.916667 0.000000
0.250000 1.750000 0.000000
0.416667 1.583333 0.000000
0.583333 1.416667 0.000000
0.750000 1.250000 0.000000
0.916667 1.083333 0.000000
1.166667 0.833333 0.000000
1.333333 0.666667 0.000000
1.500000 0.500000 0.000000
1.666667 0.333333 0.000000
1.833333 0.166667 0.000000
1.083333 0.916667 0.000000
1.250000 0.750000 0.000000
1.416667 0.583333 0.000000
1.583333 0.416667 0.000000
1.750000 0.250000 0.000000
1.916667 0.083333 0.000000
1.916667 1.083333 0.000000
1.833333 1.166667 0.000000
1.750000 1.250000 0.000000
1.666667 1.333333 0.000000
1.583333 1.416667 0.000000
1.958333 1.041667 0.000000
1.875000 1.125000 0.000000
1.791667 1.208333 0.000000
1.708333 1.291667 0.000000
1.625000 1.375000 0.000000
1.541667 1.458333 0.000000
0.833333 2.000000 0.000000
0.666667 2.000000 0.000000
0.500000 2.000000 0.000000
0.333333 2.000000 0.000000
0.166667 2.000000 0.000000
0.916667 2.000000 0.000000
0.750000 2.000000 0.000000
0.583333 2.000000 0.000000
0.416667 2.000000 0.000000
0.250000 2.000000 0.000000
0.083333 2.000000 0.000000
1.416667 1.583333 0.000000
1.333333 1.666667 0.000000
1.250000 1.750000 0.000000
1.166667 1.833333 0.000000
1.083333 1.916667 0.000000
1.458333 1.541667 0.000000
1.375000 1.625000 0.000000
1.291667 1.708333 0.000000
1.208333 1.791667 0.000000
1.125000 1.875000 0.000000
1.041667 1.958333 0.000000
1.416667 1.416667 0.000000
1.333333 1.333333 0.000000
1.250000 1.250000 0.000000
1.166667 1.166667 0.000000
1.083333 1.083333 0.000000
1.458333 1.458333 0.000000
1.375000 1.375000 0.000000
1.291667 1.291667 0.000000
1.208333 1.208333 0.000000
1.125000 1.125000 0.000000
1.041667 1.041667 0.000000
2.416667 1.583333 0.000000
2.333333 1.666667 0.000000
2.250000 1.750000 0.000000
2.166667 1.833333 0.000000
2.083333 1.916667 0.000000
2.458333 1.541667 0.000000
2.375000 1.625000 0.000000
2.291667 1.708333 0.000000
2.208333 1.791667 0.000000
2.125000 1.875000 0.000000
2.041667 1.958333 0.000000
2.333333 1.500000 0.000000
2.166667 1.500000 0.000000
2.000000 1.500000 0.000000
1.833333 1.500000 0.000000
1.666667 1.500000 0.000000
2.416667 1.500000 0.000000
2.250000 1.500000 0.000000
2.083333 1.500000 0.000000
1.916667 1.500000 0.000000
1.750000 1.500000 0.000000
1.583333 1.500000 0.000000
2.166667 1.166667 0.000000
2.000000 1.333333 0.000000
2.500000 1.166667 0.000000
2.333333 1.333333 0.000000
2.250000 1.083333 0.000000
2.000000 1.166667 0.000000
2.083333 1.083333 0.000000
2.083333 1.250000 0.000000
1.833333 1.333333 0.000000
1.916667 1.250000 0.000000
1.916667 1.416667 0.000000
1.750000 1.416667 0.000000
2.583333 1.083333 0.000000
2.333333 1.166667 0.000000
2.416667 1.083333 0.000000
2.416667 1.250000 0.000000
2.166667 1.333333 0.000000
2.250000 1.250000 0.000000
2.250000 1.416667 0.000000
2.083333 1.416667 0.000000
2.666667 1.166667 0.000000
2.750000 1.083333 0.000000
2.500000 1.333333 0.000000
2.583333 1.250000 0.000000
2.416667 1.416667 0.000000
2.125000 1.041667 0.000000
2.000000 1.083333 0.000000
2.291667 1.041667 0.000000
2.166667 1.083333 0.000000
2.208333 1.125000 0.000000
2.083333 1.166667 0.000000
2.041667 1.125000 0.000000
1.916667 1.166667 0.000000
1.958333 1.208333 0.000000
1.833333 1.250000 0.000000
2.125000 1.208333 0.000000
2.000000 1.250000 0.000000
2.041667 1.291667 0.000000
1.916667 1.333333 0.000000
1.875000 1.291667 0.000000
1.750000 1.333333 0.000000
1.791667 1.375000 0.000000
1.666667 1.416667 0.000000
1.958333 1.375000 0.000000
1.833333 1.416667 0.000000
1.875000 1.458333 0.000000
1.708333 1.458333 0.000000
2.458333 1.041667 0.000000
2.333333 1.083333 0.000000
2.625000 1.041667 0.000000
2.500000 1.083333 0.000000
2.541667 1.125000 0.000000
2.416667 1.166667 0.000000
2.375000 1.125000 0.000000
2.250000 1.166667 0.000000
2.291667 1.208333 0.000000
2.166667 1.250000 0.000000
2.458333 1.208333 0.000000
2.333333 1.250000 0.000000
2.375000 1.291667 0.000000
2.250000 1.333333 0.000000
2.208333 1.291667 0.000000
2.083333 1.333333 0.000000
2.125000 1.375000 0.000000
2.000000 1.416667 0.000000
2.291667 1.375000 0.000000
2.166667 1.416667 0.000000
2.208333 1.458333 0.000000
2.041667 1.458333 0.000000
2.791667 1.041667 0.000000
2.666667 1.083333 0.000000
2.833333 1.083333 0.000000
2.750000 1.166667 0.000000
2.708333 1.125000 0.000000
2.583333 1.166667 0.000000
2.625000 1.208333 0.000000
2.500000 1.250000 0.000000
2.666667 1.250000 0.000000
2.583333 1.333333 0.000000
2.541667 1.291667 0.000000
2.416667 1.333333 0.000000
2.458333 1.375000 0.000000
2.333333 1.416667 0.000000
2.500000 1.416667 0.000000
2.375000 1.458333 0.000000
2.000000 1.666667 0.000000
1.833333 1.833333 0.000000
1.666667 1.666667 0.000000
1.500000 1.833333 0.000000
2.166667 1.666667 0.000000
2.083333 1.583333 0.000000
2.250000 1.583333 0.000000
2.000000 1.833333 0.000000
1.916667 1.750000 0.000000
2.083333 1.750000 0.000000
1.750000 1.916667 0.000000
1.916667 1.916667 0.000000
1.833333 1.666667 0.000000
1.750000 1.583333 0.000000
1.916667 1.583333 0.000000
1.666667 1.833333 0.000000
1.583333 1.750000 0.000000
1.750000 1.750000 0.000000
1.416667 1.916667 0.000000
1.583333 1.916667 0.000000
1.500000 1.666667 0.000000
1.583333 1.583333 0.000000
1.333333 1.833333 0.000000
1.416667 1.750000 0.000000
1.250000 1.916667 0.000000
2.333333 1.583333 0.000000
2.291667 1.541667 0.000000
2.250000 1.666667 0.000000
2.208333 1.625000 0.000000
2.083333 1.666667 0.000000
2.041667 1.625000 0.000000
2.166667 1.583333 0.000000
2.125000 1.541667 0.000000
2.166667 1.750000 0.000000
2.125000 1.708333 0.000000
2.083333 1.833333 0.000000
2.041667 1.791667 0.000000
1.916667 1.833333 0.000000
1.875000 1.791667 0.000000
2.000000 1.750000 0.000000
1.958333 1.708333 0.000000
2.000000 1.916667 0.000000
1.958333 1.875000 0.000000
1.875000 1.958333 0.000000
1.708333 1.958333 0.000000
1.833333 1.916667 0.000000
1.791667 1.875000 0.000000
2.000000 1.583333 0.000000
1.958333 1.541667 0.000000
1.916667 1.666667 0.000000
1.875000 1.625000 0.000000
1.750000 1.666667 0.000000
1.708333 1.625000 0.000000
1.833333 1.583333 0.000000
1.791667 1.541667 0.000000
1.833333 1.750000 0.000000
1.791667 1.708333 0.000000
1.750000 1.833333 0.000000
1.708333 1.791667 0.000000
1.583333 1.833333 0.000000
1.541667 1.791667 0.000000
1.666667 1.750000 0.000000
1.625000 1.708333 0.000000
1.666667 1.916667 0.000000
1.625000 1.875000 0.000000
1.541667 1.958333 0.000000
1.375000 1.958333 0.000000
1.500000 1.916667 0.000000
1.458333 1.875000 0.000000
1.666667 1.583333 0.000000
1.625000 1.541667 0.000000
1.583333 1.666667 0.000000
1.541667 1.625000 0.000000
1.416667 1.666667 0.000000
1.500000 1.583333 0.000000
1.500000 1.750000 0.000000
1.458333 1.708333 0.000000
1.416667 1.833333 0.000000
1.375000 1.791667 0.000000
1.250000 1.833333 0.000000
1.333333 1.750000 0.000000
1.333333 1.916667 0.000000
1.291667 1.875000 0.000000
1.208333 1.958333 0.000000
1.166667 1.916667 0.000000
0.666667 2.333333 0.000000
0.333333 2.333333 0.000000
0.666667 2.666667 0.000000
0.333333 2.666667 0.000000
0.833333 2.333333 0.000000
0.666667 2.166667 0.000000
0.833333 2.166667 0.000000
0.500000 2.333333 0.000000
0.333333 2.166667 0.000000
0.500000 2.166667 0.000000
0.166667 2.333333 0.000000
0.166667 2.166667 0.000000
0.833333 2.666667 0.000000
0.666667 2.500000 0.000000
0.833333 2.500000 0.000000
0.500000 2.666667 0.000000
0.333333 2.500000 0.000000
0.500000 2.500000 0.000000
0.166667 2.666667 0.000000
0.166667 2.500000 0.000000
0.666667 2.833333 0.000000
[...]
POINT_DATA 601
VECTORS sol double
+0.000000 +0.000000 0
+0.000000 +0.000000 0
+0.000000 +0.000000 0
+0.000000 +0.000000 0
+0.000000 +0.000000 0
+0.000000 +0.000000 0
+0.000000 +0.000000 0
+0.000000 +0.000000 0
+0.000000 +0.000000 0
-1.016810 -0.844904 0
+0.000000 +0.000000 0
+0.000000 +0.000000 0
+0.000000 +0.000000 0
+0.000000 +0.000000 0
+0.000000 +0.000000 0
+0.000000 +0.000000 0
+0.000000 +0.000000 0
+0.000000 +0.000000 0
+0.000000 +0.000000 0
+0.000000 +0.000000 0
+0.000000 +0.000000 0
+0.000000 +0.000000 0
+0.000000 +0.000000 0
+0.000000 +0.000000 0
+0.000000 +0.000000 0
+0.000000 +0.000000 0
+0.000000 +0.000000 0
+0.000000 +0.000000 0
+0.000000 +0.000000 0
+0.000000 +0.000000 0
+0.000000 +0.000000 0
+0.000000 +0.000000 0
+0.000000 +0.000000 0
+0.000000 +0.000000 0
+0.000000 +0.000000 0
+0.000000 +0.000000 0
+0.000000 +0.000000 0
+0.000000 +0.000000 0
+0.000000 +0.000000 0
+0.000000 +0.000000 0
+0.000000 +0.000000 0
+0.000000 +0.000000 0
+0.000000 +0.000000 0
+0.000000 +0.000000 0
+0.000000 +0.000000 0
+0.000000 +0.000000 0
+0.000000 +0.000000 0
+0.000000 +0.000000 0
+0.000000 +0.000000 0
+0.000000 +0.000000 0
+0.000000 +0.000000 0
+0.000000 +0.000000 0
+0.000000 +0.000000 0
+0.000000 +0.000000 0
+0.000000 +0.000000 0
+0.000000 +0.000000 0
+0.000000 +0.000000 0
+0.000000 +0.000000 0
+0.000000 +0.000000 0
+0.000000 +0.000000 0
+0.000000 +0.000000 0
+0.000000 +0.000000 0
+0.000000 +0.000000 0
+0.000000 +0.000000 0
+0.000000 +0.000000 0
+0.000000 +0.000000 0
+0.000000 +0.000000 0
+0.000000 +0.000000 0
+0.000000 +0.000000 0
+0.000000 +0.000000 0
+0.000000 +0.000000 0
+0.000000 +0.000000 0
+0.000000 +0.000000 0
+0.000000 +0.000000 0
+0.000000 +0.000000 0
+0.000000 +0.000000 0
+0.000000 +0.000000 0
+0.000000 +0.000000 0
+0.000000 +0.000000 0
+0.000000 +0.000000 0
+0.000000 +0.000000 0
+0.000000 +0.000000 0
+0.000000 +0.000000 0
+0.000000 +0.000000 0
+0.000000 +0.000000 0
+0.000000 +0.000000 0
+0.000000 +0.000000 0
+0.000000 +0.000000 0
+0.000000 +0.000000 0
+0.000000 +0.000000 0
+0.000000 +0.000000 0
+0.000000 +0.000000 0
+0.000000 +0.000000 0
+0.000000 +0.000000 0
+0.000000 +0.000000 0
+0.000000 +0.000000 0
+0.000000 +0.000000 0
+0.000000 +0.000000 0
+0.000000 +0.000000 0
+0.000000 +0.000000 0
+0.000000 +0.000000 0
+0.000000 +0.000000 0
+0.000000 +0.000000 0
+0.000000 +0.000000 0
+0.000000 +0.000000 0
+0.000000 +0.000000 0
+0.000000 +0.000000 0
+0.000000 +0.000000 0
+0.000000 +0.000000 0
+0.000000 +0.000000 0
-0.444223 -0.369121 0
-0.707550 -0.587929 0
-0.895822 -0.744372 0
-1.009501 -0.838831 0
-1.049139 -0.871768 0
-0.237357 -0.197229 0
-0.593161 -0.492879 0
-0.810945 -0.673844 0
-0.962100 -0.799444 0
-1.038661 -0.863062 0
-1.041735 -0.865615 0
-0.192787 -0.160194 0
-0.211016 -0.175341 0
-0.173261 -0.143969 0
-0.109275 -0.090800 0
-0.043577 -0.036210 0
-0.129348 -0.107480 0
-0.214148 -0.177944 0
-0.197079 -0.163761 0
-0.142929 -0.118765 0
-0.075406 -0.062657 0
-0.017626 -0.014646 0
-0.919983 -0.764447 0
-0.771539 -0.641100 0
-0.588769 -0.489230 0
-0.391517 -0.325326 0
-0.197092 -0.163771 0
-0.975862 -0.810879 0
-0.851284 -0.707363 0
-0.683306 -0.567784 0
-0.490698 -0.407739 0
-0.294206 -0.244467 0
-0.093833 -0.077970 0
-1.036802 -0.861517 0
-0.970513 -0.806435 0
-0.819056 -0.680584 0
-0.592871 -0.492638 0
-0.311152 -0.258547 0
-1.037339 -0.861963 0
-1.014681 -0.843136 0
-0.905115 -0.752094 0
-0.714430 -0.593646 0
-0.457618 -0.380251 0
-0.157649 -0.130996 0
+0.000000 +0.000000 0
+0.000000 +0.000000 0
+0.000000 +0.000000 0
+0.000000 +0.000000 0
+0.000000 +0.000000 0
+0.000000 +0.000000 0
+0.000000 +0.000000 0
+0.000000 +0.000000 0
+0.000000 +0.000000 0
+0.000000 +0.000000 0
+0.000000 +0.000000 0
-0.152153 -0.126430 0
-0.365871 -0.304016 0
-0.604078 -0.501951 0
-0.820088 -0.681441 0
-0.967982 -0.804331 0
-0.066543 -0.055293 0
-0.253249 -0.210434 0
-0.484708 -0.402761 0
-0.717996 -0.596609 0
-0.905062 -0.752050 0
-1.005848 -0.835796 0
-0.260196 -0.216206 0
-0.617377 -0.513001 0
-0.059811 -0.049699 0
-0.200661 -0.166737 0
-0.102214 -0.084933 0
-0.450107 -0.374010 0
-0.203607 -0.169185 0
-0.444987 -0.369756 0
-0.847032 -0.703830 0
-0.680324 -0.565306 0
-0.748398 -0.621871 0
-0.944409 -0.784744 0
-0.019611 -0.016295 0
-0.138499 -0.115084 0
-0.051849 -0.043083 0
-0.121596 -0.101038 0
-0.388397 -0.322733 0
-0.255993 -0.212714 0
-0.286838 -0.238344 0
-0.511817 -0.425287 0
-0.015973 -0.013272 0
-0.004118 -0.003421 0
-0.069753 -0.057960 0
-0.037768 -0.031383 0
-0.109563 -0.091040 0
-0.082173 -0.068280 0
-0.284909 -0.236741 0
-0.046006 -0.038228 0
-0.141617 -0.117675 0
-0.175598 -0.145911 0
-0.345061 -0.286724 0
-0.324283 -0.269459 0
-0.582437 -0.483968 0
-0.572471 -0.475687 0
-0.796789 -0.662081 0
-0.350869 -0.291550 0
-0.558785 -0.464315 0
-0.534828 -0.444408 0
-0.736484 -0.611971 0
-0.772248 -0.641689 0
-0.940729 -0.781686 0
-0.904953 -0.751958 0
-1.010557 -0.839709 0
-0.689578 -0.572995 0
-0.855133 -0.710562 0
-0.792496 -0.658514 0
-0.965639 -0.802385 0
-0.021326 -0.017720 0
-0.074567 -0.061961 0
-0.007567 -0.006287 0
-0.033375 -0.027732 0
-0.037038 -0.030776 0
-0.094484 -0.078510 0
-0.090644 -0.075319 0
-0.192405 -0.159876 0
-0.193981 -0.161186 0
-0.343183 -0.285163 0
-0.088113 -0.073216 0
-0.182224 -0.151417 0
-0.159351 -0.132411 0
-0.287915 -0.239239 0
-0.321540 -0.267180 0
-0.499509 -0.415060 0
-0.452592 -0.376075 0
-0.631673 -0.524880 0
-0.243545 -0.202370 0
-0.395151 -0.328346 0
-0.328089 -0.272621 0
-0.563028 -0.467840 0
-0.001371 -0.001140 0
-0.010117 -0.008407 0
-0.001095 -0.000910 0
-0.005149 -0.004278 0
-0.008941 -0.007429 0
-0.033882 -0.028154 0
-0.025558 -0.021237 0
-0.073477 -0.061055 0
-0.013692 -0.011377 0
-0.027353 -0.022728 0
-0.052523 -0.043643 0
-0.127545 -0.105982 0
-0.088825 -0.073808 0
-0.190562 -0.158345 0
-0.045595 -0.037887 0
-0.130754 -0.108648 0
-0.444685 -0.369505 0
-0.337571 -0.280500 0
-0.757393 -0.629345 0
-0.442717 -0.367870 0
-0.217314 -0.180574 0
-0.422906 -0.351408 0
-0.190598 -0.158375 0
-0.203329 -0.168954 0
-0.419385 -0.348482 0
-0.224663 -0.186680 0
-0.195019 -0.162048 0
-0.132478 -0.110081 0
-0.633964 -0.526784 0
-0.823780 -0.684509 0
-0.648501 -0.538863 0
-0.413665 -0.343729 0
-0.626092 -0.520243 0
-0.555043 -0.461205 0
-0.226382 -0.188109 0
-0.221726 -0.184241 0
-0.802909 -0.667166 0
-0.918523 -0.763234 0
-0.430909 -0.358058 0
-0.634324 -0.527083 0
-0.213650 -0.177529 0
-0.087151 -0.072417 0
-0.172202 -0.143089 0
-0.103705 -0.086172 0
-0.205758 -0.170972 0
-0.333149 -0.276826 0
-0.439011 -0.364790 0
-0.304458 -0.252985 0
-0.397974 -0.330691 0
-0.112256 -0.093278 0
-0.223816 -0.185977 0
-0.108383 -0.090060 0
-0.218458 -0.181525 0
-0.278613 -0.231510 0
-0.386396 -0.321070 0
-0.328715 -0.273141 0
-0.438782 -0.364600 0
-0.083691 -0.069542 0
-0.176047 -0.146284 0
-0.078235 -0.065008 0
-0.101928 -0.084696 0
-0.170137 -0.141373 0
-0.273589 -0.227335 0
-0.539559 -0.448340 0
-0.633183 -0.526135 0
-0.546334 -0.453969 0
-0.649236 -0.539474 0
-0.705062 -0.585862 0
-0.799335 -0.664196 0
-0.744782 -0.618867 0
-0.830868 -0.690399 0
-0.495383 -0.411632 0
-0.602781 -0.500872 0
-0.382163 -0.317553 0
-0.491758 -0.408620 0
-0.433722 -0.360396 0
-0.539841 -0.448573 0
-0.598693 -0.497476 0
-0.699322 -0.581092 0
-0.211303 -0.175580 0
-0.322962 -0.268361 0
-0.113181 -0.094046 0
-0.112730 -0.093671 0
-0.226732 -0.188400 0
-0.337318 -0.280290 0
-0.882522 -0.733320 0
-0.952209 -0.791225 0
-0.790194 -0.656601 0
-0.868369 -0.721559 0
-0.796215 -0.661604 0
-0.930973 -0.773579 0
-0.637744 -0.529925 0
-0.724218 -0.601779 0
-0.441383 -0.366761 0
-0.535739 -0.445165 0
-0.413170 -0.343318 0
-0.617254 -0.512899 0
-0.221320 -0.183903 0
-0.322423 -0.267913 0
-0.106094 -0.088158 0
-0.204904 -0.170262 0
-0.123383 -0.102523 0
-0.102842 -0.085455 0
-0.059276 -0.049254 0
-0.055920 -0.046466 0
-0.077087 -0.064055 0
-0.162710 -0.135201 0
-0.115185 -0.095711 0
-0.129514 -0.107618 0
-0.115064 -0.095611 0
-0.156511 -0.130051 0
-0.055793 -0.046360 0
-0.058044 -0.048231 0
-0.034997 -0.029080 0
-0.089971 -0.074760 0
-0.054099 -0.044953 0
-0.066449 -0.055215 0
-0.081538 -0.067753 0
-0.098751 -0.082056 0
-0.031629 -0.026282 0
-0.045498 -0.037806 0
-0.029515 -0.024525 0
-0.017303 -0.014378 0
-0.028343 -0.023551 0
-0.033390 -0.027745 0
-0.016128 -0.013402 0
-0.060352 -0.050149 0
-0.142086 -0.118064 0
-0.041000 -0.034069 0
-0.092744 -0.077064 0
-0.105185 -0.087402 0
-0.142125 -0.118097 0
-0.147123 -0.122250 0
-0.187134 -0.155496 0
-0.165481 -0.137505 0
-0.166894 -0.138678 0
-0.131204 -0.109023 0
-0.143794 -0.119484 0
-0.119616 -0.099393 0
-0.110622 -0.091920 0
-0.138953 -0.115461 0
-0.115148 -0.095680 0
-0.087495 -0.072703 0
-0.054315 -0.045132 0
-0.081137 -0.067420 0
-0.058443 -0.048562 0
-0.028394 -0.023594 0
-0.029246 -0.024301 0
-0.028237 -0.023464 0
-0.064670 -0.053737 0
-0.018223 -0.015142 0
-0.044235 -0.036757 0
-0.048995 -0.040712 0
-0.074413 -0.061833 0
-0.075040 -0.062354 0
-0.106096 -0.088159 0
-0.097873 -0.081326 0
-0.114442 -0.095094 0
-0.065160 -0.054144 0
-0.082738 -0.068750 0
-0.063244 -0.052551 0
-0.069106 -0.057423 0
-0.093066 -0.077332 0
-0.093009 -0.077285 0
-0.065343 -0.054296 0
-0.051328 -0.042650 0
-0.045145 -0.037513 0
-0.038879 -0.032306 0
-0.016289 -0.013535 0
-0.023359 -0.019410 0
-0.008989 -0.007469 0
-0.026052 -0.021648 0
-0.008629 -0.007170 0
-0.014744 -0.012251 0
-0.024298 -0.020190 0
-0.044330 -0.036835 0
-0.032591 -0.027081 0
-0.049986 -0.041536 0
-0.016716 -0.013890 0
-0.014218 -0.011814 0
-0.031922 -0.026525 0
-0.042296 -0.035145 0
-0.022959 -0.019077 0
-0.024014 -0.019954 0
-0.008102 -0.006732 0
-0.008319 -0.006912 0
-0.382766 -0.318054 0
-0.729990 -0.606575 0
-0.218164 -0.181281 0
-0.429694 -0.357049 0
-0.269825 -0.224207 0
-0.399891 -0.332284 0
-0.254622 -0.211575 0
-0.548964 -0.456155 0
-0.785279 -0.652517 0
-0.594607 -0.494081 0
-0.882704 -0.733471 0
-0.941675 -0.782473 0
-0.154347 -0.128252 0
-0.318653 -0.264780 0
-0.230052 -0.191159 0
-0.312973 -0.260061 0
-0.607553 -0.504838 0
-0.451612 -0.375261 0
-0.535670 -0.445108 0
-0.743781 -0.618035 0
-0.104528 -0.086856 0
-0.071177 -0.059144 0
-0.217851 -0.181020 0
-0.153873 -0.127859 0
-0.278574 -0.231477 0
-0.206384 -0.171492 0
-0.213763 -0.177624 0
-0.238144 -0.197883 0
-0.270327 -0.224625 0
-0.319024 -0.265089 0
-0.396770 -0.329691 0
-0.316473 -0.262969 0
-0.399509 -0.331967 0
-0.495583 -0.411798 0
-0.597954 -0.496862 0
-0.460701 -0.382814 0
-0.578084 -0.480351 0
-0.640381 -0.532116 0
-0.766474 -0.636891 0
-0.692388 -0.575331 0
-0.786876 -0.653844 0
-0.869629 -0.722607 0
-0.940618 -0.781594 0
-0.812437 -0.675083 0
-0.922512 -0.766549 0
-0.936689 -0.778329 0
-0.998346 -0.829562 0
-0.198611 -0.165033 0
-0.256277 -0.212950 0
-0.130544 -0.108474 0
-0.194615 -0.161712 0
-0.183002 -0.152063 0
-0.271593 -0.225677 0
-0.268767 -0.223328 0
-0.356187 -0.295969 0
-0.380052 -0.315799 0
-0.506258 -0.420668 0
-0.261595 -0.217369 0
-0.386262 -0.320959 0
-0.370208 -0.307619 0
-0.524376 -0.435723 0
-0.529176 -0.439712 0
-0.676693 -0.562289 0
-0.680933 -0.565812 0
-0.822868 -0.683752 0
-0.486544 -0.404287 0
-0.647388 -0.537938 0
-0.572575 -0.475773 0
-0.791319 -0.657536 0
-0.057684 -0.047931 0
-0.112329 -0.093338 0
-0.033256 -0.027633 0
-0.049908 -0.041471 0
-0.086313 -0.071721 0
-0.161494 -0.134191 0
-0.126838 -0.105395 0
-0.234305 -0.194692 0
-0.074574 -0.061966 0
-0.107695 -0.089488 0
-0.184761 -0.153525 0
-0.326326 -0.271156 0
-0.250239 -0.207933 0
-0.411734 -0.342125 0
-0.140127 -0.116436 0
-0.299965 -0.249252 0
-0.865274 -0.718987 0
-0.410892 -0.341425 0
-0.476185 -0.395679 0
-0.161519 -0.134212 0
-0.968238 -0.804544 0
-0.975118 -0.810261 0
-1.051353 -0.873607 0
-0.669005 -0.555901 0
-0.553888 -0.460245 0
-0.808124 -0.671500 0
-0.160822 -0.133632 0
-0.254768 -0.211696 0
-0.574621 -0.477474 0
-0.693226 -0.576027 0
-0.804975 -0.668883 0
-0.321505 -0.267150 0
-0.280283 -0.232898 0
-0.501578 -0.416779 0
-0.048421 -0.040235 0
-0.099284 -0.082499 0
-0.236348 -0.196390 0
-0.297580 -0.247270 0
-0.064275 -0.053409 0
-0.147077 -0.122211 0
-0.014744 -0.012251 0
-1.055067 -0.876694 0
-1.060944 -0.881577 0
-0.981795 -0.815809 0
-1.020402 -0.847889 0
-0.929475 -0.772335 0
-0.929160 -0.772073 0
-1.024910 -0.851635 0
-1.002560 -0.833064 0
-0.902859 -0.750219 0
-0.859857 -0.714486 0
-0.777725 -0.646240 0
-0.743144 -0.617506 0
-0.543795 -0.451859 0
-0.480703 -0.399434 0
-0.691594 -0.574671 0
-0.637128 -0.529413 0
-0.405118 -0.336627 0
-0.318399 -0.264570 0
-0.279094 -0.231910 0
-0.200383 -0.166506 0
-0.068871 -0.057228 0
-0.104362 -0.086718 0
-0.824392 -0.685017 0
-0.896121 -0.744620 0
-0.594248 -0.493782 0
-0.697214 -0.579340 0
-0.534757 -0.444349 0
-0.589112 -0.489515 0
-0.760992 -0.632336 0
-0.786202 -0.653284 0
-0.605056 -0.502763 0
-0.587856 -0.488471 0
-0.403098 -0.334949 0
-0.411979 -0.342328 0
-0.238297 -0.198009 0
-0.218795 -0.181805 0
-0.390057 -0.324112 0
-0.343793 -0.285671 0
-0.180438 -0.149933 0
-0.128669 -0.106916 0
-0.096961 -0.080568 0
-0.071870 -0.059720 0
-0.016581 -0.013777 0
-0.038664 -0.032127 0
-0.310904 -0.258342 0
-0.440564 -0.366080 0
-0.149770 -0.124449 0
-0.115975 -0.096368 0
-0.272331 -0.226290 0
-0.357556 -0.297106 0
-0.193156 -0.160500 0
-0.232071 -0.192836 0
-0.068487 -0.056909 0
-0.027170 -0.022577 0
-0.102490 -0.085162 0
-0.109241 -0.090772 0
-0.034468 -0.028641 0
-0.029113 -0.024191 0
-0.005205 -0.004325 0
-0.003990 -0.003315 0
