# vtk DataFile Version 2.0
MyTitle
ASCII
DATASET UNSTRUCTURED_GRID
POINTS 1841 double
-2.000000 0.000000 0.000000
-1.000000 0.000000 0.000000
0.000000 1.000000 0.000000
1.000000 0.000000 0.000000
3.000000 0.000000 0.000000
4.000000 1.000000 0.000000
5.000000 0.000000 0.000000
6.000000 0.000000 0.000000
6.000000 3.000000 0.000000
-2.000000 3.000000 0.000000
-1.750000 0.000000 0.000000
-1.500000 0.000000 0.000000
-1.250000 0.000000 0.000000
-1.875000 0.000000 0.000000
-1.625000 0.000000 0.000000
-1.375000 0.000000 0.000000
-1.125000 0.000000 0.000000
-0.987688 0.156434 0.000000
-0.951057 0.309017 0.000000
-0.891007 0.453990 0.000000
-0.809017 0.587785 0.000000
-0.707107 0.707107 0.000000
-0.587785 0.809017 0.000000
-0.453990 0.891007 0.000000
-0.309017 0.951057 0.000000
-0.156434 0.987688 0.000000
-0.996917 0.078459 0.000000
-0.972370 0.233445 0.000000
-0.923880 0.382683 0.000000
-0.852640 0.522499 0.000000
-0.760406 0.649448 0.000000
-0.649448 0.760406 0.000000
-0.522499 0.852640 0.000000
-0.382683 0.923880 0.000000
-0.233445 0.972370 0.000000
-0.078459 0.996917 0.000000
0.156434 0.987688 0.000000
0.309017 0.951057 0.000000
0.453990 0.891007 0.000000
0.587785 0.809017 0.000000
0.707107 0.707107 0.000000
0.809017 0.587785 0.000000
0.891007 0.453990 0.000000
0.951057 0.309017 0.000000
0.987688 0.156434 0.000000
0.078459 0.996917 0.000000
0.233445 0.972370 0.000000
0.382683 0.923880 0.000000
0.522499 0.852640 0.000000
0.649448 0.760406 0.000000
0.760406 0.649448 0.000000
0.852640 0.522499 0.000000
0.923880 0.382683 0.000000
0.972370 0.233445 0.000000
0.996917 0.078459 0.000000
1.200000 0.000000 0.000000
1.400000 0.000000 0.000000
1.600000 0.000000 0.000000
1.800000 0.000000 0.000000
2.000000 0.000000 0.000000
2.200000 0.000000 0.000000
2.400000 0.000000 0.000000
2.600000 0.000000 0.000000
2.800000 0.000000 0.000000
1.100000 0.000000 0.000000
1.300000 0.000000 0.000000
1.500000 0.000000 0.000000
1.700000 0.000000 0.000000
1.900000 0.000000 0.000000
2.100000 0.000000 0.000000
2.300000 0.000000 0.000000
2.500000 0.000000 0.000000
2.700000 0.000000 0.000000
2.900000 0.000000 0.000000
3.012312 0.156434 0.000000
3.048943 0.309017 0.000000
3.108993 0.453990 0.000000
3.190983 0.587785 0.000000
3.292893 0.707107 0.000000
3.412215 0.809017 0.000000
3.546010 0.891007 0.000000
3.690983 0.951057 0.000000
3.843566 0.987688 0.000000
3.003083 0.078459 0.000000
3.027630 0.233445 0.000000
3.076120 0.382683 0.000000
3.147360 0.522499 0.000000
3.239594 0.649448 0.000000
3.350552 0.760406 0.000000
3.477501 0.852640 0.000000
3.617317 0.923880 0.000000
3.766555 0.972370 0.000000
3.921541 0.996917 0.000000
4.156434 0.987688 0.000000
4.309017 0.951057 0.000000
4.453990 0.891007 0.000000
4.587785 0.809017 0.000000
4.707107 0.707107 0.000000
4.809017 0.587785 0.000000
4.891007 0.453990 0.000000
4.951057 0.309017 0.000000
4.987688 0.156434 0.000000
4.078459 0.996917 0.000000
4.233445 0.972370 0.000000
4.382683 0.923880 0.000000
4.522499 0.852640 0.000000
4.649448 0.760406 0.000000
4.760406 0.649448 0.000000
4.852640 0.522499 0.000000
4.923880 0.382683 0.000000
4.972370 0.233445 0.000000
4.996917 0.078459 0.000000
5.250000 0.000000 0.000000
5.500000 0.000000 0.000000
5.750000 0.000000 0.000000
5.125000 0.000000 0.000000
5.375000 0.000000 0.000000
5.625000 0.000000 0.000000
5.875000 0.000000 0.000000
6.000000 0.300000 0.000000
6.000000 0.600000 0.000000
6.000000 0.900000 0.000000
6.000000 1.200000 0.000000
6.000000 1.500000 0.000000
6.000000 1.800000 0.000000
6.000000 2.100000 0.000000
6.000000 2.400000 0.000000
6.000000 2.700000 0.000000
6.000000 0.150000 0.000000
6.000000 0.450000 0.000000
6.000000 0.750000 0.000000
6.000000 1.050000 0.000000
6.000000 1.350000 0.000000
6.000000 1.650000 0.000000
6.000000 1.950000 0.000000
6.000000 2.250000 0.000000
6.000000 2.550000 0.000000
6.000000 2.850000 0.000000
5.764706 3.000000 0.000000
5.529412 3.000000 0.000000
5.294118 3.000000 0.000000
5.058824 3.000000 0.000000
4.823529 3.000000 0.000000
4.588235 3.000000 0.000000
4.352941 3.000000 0.000000
4.117647 3.000000 0.000000
3.882353 3.000000 0.000000
3.647059 3.000000 0.000000
3.411765 3.000000 0.000000
3.176471 3.000000 0.000000
2.941176 3.000000 0.000000
2.705882 3.000000 0.000000
2.470588 3.000000 0.000000
2.235294 3.000000 0.000000
2.000000 3.000000 0.000000
1.764706 3.000000 0.000000
1.529412 3.000000 0.000000
1.294118 3.000000 0.000000
1.058824 3.000000 0.000000
0.823529 3.000000 0.000000
0.588235 3.000000 0.000000
0.352941 3.000000 0.000000
0.117647 3.000000 0.000000
-0.117647 3.000000 0.000000
-0.352941 3.000000 0.000000
-0.588235 3.000000 0.000000
-0.823529 3.000000 0.000000
-1.058824 3.000000 0.000000
-1.294118 3.000000 0.000000
-1.529412 3.000000 0.000000
-1.764706 3.000000 0.000000
5.882353 3.000000 0.000000
5.647059 3.000000 0.000000
5.411765 3.000000 0.000000
5.176471 3.000000 0.000000
4.941176 3.000000 0.000000
4.705882 3.000000 0.000000
4.470588 3.000000 0.000000
4.235294 3.000000 0.000000
4.000000 3.000000 0.000000
3.764706 3.000000 0.000000
3.529412 3.000000 0.000000
3.294118 3.000000 0.000000
3.058824 3.000000 0.000000
2.823529 3.000000 0.000000
2.588235 3.000000 0.000000
2.352941 3.000000 0.000000
2.117647 3.000000 0.000000
1.882353 3.000000 0.000000
1.647059 3.000000 0.000000
1.411765 3.000000 0.000000
1.176471 3.000000 0.000000
0.941176 3.000000 0.000000
0.705882 3.000000 0.000000
0.470588 3.000000 0.000000
0.235294 3.000000 0.000000
0.000000 3.000000 0.000000
-0.235294 3.000000 0.000000
-0.470588 3.000000 0.000000
-0.705882 3.000000 0.000000
-0.941176 3.000000 0.000000
-1.176471 3.000000 0.000000
-1.411765 3.000000 0.000000
-1.647059 3.000000 0.000000
-1.882353 3.000000 0.000000
-2.000000 2.700000 0.000000
-2.000000 2.400000 0.000000
-2.000000 2.100000 0.000000
-2.000000 1.800000 0.000000
-2.000000 1.500000 0.000000
-2.000000 1.200000 0.000000
-2.000000 0.900000 0.000000
-2.000000 0.600000 0.000000
-2.000000 0.300000 0.000000
-2.000000 2.850000 0.000000
-2.000000 2.550000 0.000000
-2.000000 2.250000 0.000000
-2.000000 1.950000 0.000000
-2.000000 1.650000 0.000000
-2.000000 1.350000 0.000000
-2.000000 1.050000 0.000000
-2.000000 0.750000 0.000000
-2.000000 0.450000 0.000000
-2.000000 0.150000 0.000000
1.964119 1.449704 0.000000
1.058289 1.866560 0.000000
3.073590 1.972601 0.000000
4.379508 1.931243 0.000000
-0.380958 1.941324 0.000000
2.434416 0.776862 0.000000
1.496650 0.838663 0.000000
-0.957296 1.563625 0.000000
4.956241 1.542949 0.000000
3.683345 1.681923 0.000000
0.332220 1.659072 0.000000
2.267996 2.064368 0.000000
2.956725 1.290282 0.000000
1.111799 1.151897 0.000000
1.651734 2.007559 0.000000
0.548201 2.145653 0.000000
5.050908 2.168617 0.000000
-1.049806 2.180673 0.000000
4.309522 1.567352 0.000000
-0.318455 1.576828 0.000000
2.480302 1.790796 0.000000
5.534418 0.696998 0.000000
-1.532458 0.708811 0.000000
2.082176 0.384531 0.000000
-0.571226 1.444125 0.000000
4.563695 1.429725 0.000000
2.842520 2.283477 0.000000
1.487073 1.627079 0.000000
3.551655 1.306729 0.000000
0.465400 1.268299 0.000000
-0.864546 1.062261 0.000000
4.860736 1.049280 0.000000
1.946394 1.051404 0.000000
4.231637 2.409781 0.000000
-0.225416 2.413351 0.000000
2.809758 0.536959 0.000000
1.097072 0.680087 0.000000
2.456203 1.335017 0.000000
1.966234 2.378673 0.000000
2.471392 0.357726 0.000000
1.667305 0.383508 0.000000
-0.663567 1.679051 0.000000
4.661010 1.661083 0.000000
5.467530 1.834598 0.000000
-1.467363 1.843755 0.000000
1.640140 1.259448 0.000000
2.030508 1.881125 0.000000
5.377662 1.261206 0.000000
2.975601 0.803270 0.000000
4.762554 2.270806 0.000000
-0.761400 2.279674 0.000000
3.862079 1.988532 0.000000
0.153208 1.983291 0.000000
5.388045 2.402023 0.000000
-1.386005 2.406663 0.000000
3.510294 2.152616 0.000000
4.051804 1.335442 0.000000
2.710470 1.954876 0.000000
2.388194 2.564642 0.000000
0.862108 2.653736 0.000000
3.185008 2.604280 0.000000
2.711881 1.055048 0.000000
3.185838 1.540159 0.000000
0.864666 1.437783 0.000000
1.372455 1.926092 0.000000
1.367323 2.566004 0.000000
3.156300 2.253518 0.000000
1.027678 2.272601 0.000000
2.736227 0.317866 0.000000
1.280297 0.347100 0.000000
5.308482 0.332453 0.000000
-1.307035 0.338174 0.000000
4.921179 2.611791 0.000000
-0.919000 2.615820 0.000000
5.133884 0.667704 0.000000
-1.134202 0.677269 0.000000
4.110323 1.768533 0.000000
-0.115494 1.771063 0.000000
3.623760 2.546876 0.000000
0.406287 2.557435 0.000000
-1.377900 1.274749 0.000000
1.780109 1.736285 0.000000
5.044788 1.880808 0.000000
-1.044261 1.896644 0.000000
-0.057200 1.332145 0.000000
2.703441 1.534578 0.000000
3.363246 1.828705 0.000000
0.697245 1.773580 0.000000
1.177908 1.548779 0.000000
4.600617 2.702777 0.000000
-0.598066 2.704733 0.000000
4.702902 1.941767 0.000000
-0.702064 1.957283 0.000000
1.990755 0.770756 0.000000
3.212403 1.044827 0.000000
0.831074 0.970815 0.000000
1.296115 1.313131 0.000000
2.231466 1.615391 0.000000
2.918232 1.744832 0.000000
-1.589011 0.376809 0.000000
5.595569 0.364275 0.000000
1.874924 2.070882 0.000000
1.178478 2.743687 0.000000
-0.456308 1.729660 0.000000
4.452105 1.714168 0.000000
1.319141 2.158028 0.000000
-0.810086 1.367469 0.000000
4.804334 1.348004 0.000000
1.550203 2.286769 0.000000
3.929808 1.595784 0.000000
0.064215 1.590914 0.000000
2.782130 2.614966 0.000000
-0.447368 1.195019 0.000000
4.440943 1.186719 0.000000
2.875683 2.067784 0.000000
2.547573 2.216729 0.000000
2.182563 1.159701 0.000000
2.881659 0.672743 0.000000
2.937510 0.425039 0.000000
3.090372 0.691347 0.000000
3.003860 0.560746 0.000000
1.864806 1.593727 0.000000
1.637637 1.676276 0.000000
1.556760 1.466279 0.000000
1.819280 1.365729 0.000000
1.718562 1.522533 0.000000
1.775440 0.794054 0.000000
1.961308 0.939217 0.000000
1.832276 1.123547 0.000000
1.573507 1.054911 0.000000
1.779298 0.978723 0.000000
2.310621 2.774700 0.000000
1.867123 2.659606 0.000000
2.188690 2.501559 0.000000
2.090360 2.736112 0.000000
5.131868 2.540271 0.000000
5.471091 2.723096 0.000000
4.996525 2.800177 0.000000
5.223606 2.761564 0.000000
[...]
POINT_DATA 1841
VECTORS sol double
-2.666667 +0.000000 0
-12.000000 +0.000000 0
+0.000000 +12.000000 0
+12.000000 +0.000000 0
+12.000000 -0.000000 0
-0.000000 -12.000000 0
-12.000000 -0.000000 0
-2.666667 +0.000000 0
-0.273517 -0.648789 0
-0.273517 +0.648789 0
-4.320824 +1.100435 0
-6.248034 +1.764474 0
-8.669105 +1.973151 0
-3.469165 +0.607210 0
-5.238163 +1.470077 0
-7.375752 +1.980318 0
-10.180993 +1.551775 0
-11.852260 +1.877214 0
-11.412678 +3.708204 0
-10.692078 +5.447886 0
-9.708204 +7.053423 0
-8.485281 +8.485281 0
-7.053423 +9.708204 0
-5.447886 +10.692078 0
-3.708204 +11.412678 0
-1.877214 +11.852260 0
-11.963008 +0.941509 0
-11.668439 +2.801344 0
-11.086554 +4.592201 0
-10.231682 +6.269983 0
-9.124872 +7.793377 0
-7.793377 +9.124872 0
-6.269983 +10.231682 0
-4.592201 +11.086554 0
-2.801344 +11.668439 0
-0.941509 +11.963008 0
+1.877214 +11.852260 0
+3.708204 +11.412678 0
+5.447886 +10.692078 0
+7.053423 +9.708204 0
+8.485281 +8.485281 0
+9.708204 +7.053423 0
+10.692078 +5.447886 0
+11.412678 +3.708204 0
+11.852260 +1.877214 0
+0.941509 +11.963008 0
+2.801344 +11.668439 0
+4.592201 +11.086554 0
+6.269983 +10.231682 0
+7.793377 +9.124872 0
+9.124872 +7.793377 0
+10.231682 +6.269983 0
+11.086554 +4.592201 0
+11.668439 +2.801344 0
+11.963008 +0.941509 0
+10.509975 +1.773666 0
+9.552570 +1.701730 0
+8.952814 +1.265199 0
+8.622058 +0.660110 0
+8.516178 -0.000189 0
+8.622040 -0.660495 0
+8.952671 -1.266536 0
+9.552514 -1.701938 0
+10.505447 -1.824189 0
+11.173527 +1.321424 0
+9.977331 +1.831728 0
+9.214359 +1.514133 0
+8.757054 +0.975372 0
+8.542193 +0.333397 0
+8.542228 -0.333536 0
+8.757194 -0.974896 0
+9.214657 -1.516377 0
+9.977868 -1.822600 0
+11.174986 -1.258709 0
+11.852260 -1.877214 0
+11.412678 -3.708204 0
+10.692078 -5.447886 0
+9.708204 -7.053423 0
+8.485281 -8.485281 0
+7.053423 -9.708204 0
+5.447886 -10.692078 0
+3.708204 -11.412678 0
+1.877214 -11.852260 0
+11.963008 -0.941509 0
+11.668439 -2.801344 0
+11.086554 -4.592201 0
+10.231682 -6.269983 0
+9.124872 -7.793377 0
+7.793377 -9.124872 0
+6.269983 -10.231682 0
+4.592201 -11.086554 0
+2.801344 -11.668439 0
+0.941509 -11.963008 0
-1.877214 -11.852260 0
-3.708204 -11.412678 0
-5.447886 -10.692078 0
-7.053423 -9.708204 0
-8.485281 -8.485281 0
-9.708204 -7.053423 0
-10.692078 -5.447886 0
-11.412678 -3.708204 0
-11.852260 -1.877214 0
-0.941509 -11.963008 0
-2.801344 -11.668439 0
-4.592201 -11.086554 0
-6.269983 -10.231682 0
-7.793377 -9.124872 0
-9.124872 -7.793377 0
-10.231682 -6.269983 0
-11.086554 -4.592201 0
-11.668439 -2.801344 0
-11.963008 -0.941509 0
-8.669223 -1.972490 0
-6.248047 -1.764567 0
-4.320717 -1.100498 0
-10.180898 -1.551984 0
-7.375732 -1.980288 0
-5.238148 -1.470004 0
-3.469087 -0.607887 0
-2.569438 -0.418624 0
-2.307824 -0.758026 0
-1.952672 -0.975420 0
-1.577240 -1.072059 0
-1.231642 -1.075910 0
-0.939066 -1.020907 0
-0.703766 -0.935153 0
-0.520308 -0.837813 0
-0.379875 -0.740338 0
-2.641843 -0.214789 0
-2.455258 -0.602014 0
-2.137003 -0.882794 0
-1.763682 -1.037438 0
-1.398699 -1.083412 0
-1.078135 -1.053804 0
-0.814460 -0.980470 0
-0.606079 -0.887062 0
-0.445292 -0.788614 0
-0.322957 -0.693594 0
-0.250184 -0.722637 0
-0.214134 -0.798228 0
-0.163307 -0.872430 0
-0.096223 -0.941100 0
-0.012417 -0.999252 0
+0.087155 -1.041455 0
+0.199876 -1.062469 0
+0.321512 -1.058012 0
+0.446615 -1.025463 0
+0.569224 -0.964289 0
+0.683662 -0.876063 0
+0.785225 -0.764055 0
+0.870560 -0.632574 0
+0.937688 -0.486259 0
+0.985730 -0.329533 0
+1.014494 -0.166312 0
+1.024062 -0.000000 0
+1.014494 +0.166312 0
+0.985730 +0.329533 0
+0.937688 +0.486259 0
+0.870560 +0.632574 0
+0.785225 +0.764055 0
+0.683662 +0.876063 0
+0.569224 +0.964289 0
+0.446615 +1.025463 0
+0.321512 +1.058012 0
+0.199876 +1.062469 0
+0.087155 +1.041455 0
-0.012417 +0.999252 0
-0.096223 +0.941100 0
-0.163307 +0.872430 0
-0.214134 +0.798228 0
-0.250184 +0.722637 0
-0.263300 -0.685339 0
-0.233886 -0.760387 0
-0.190679 -0.835739 0
-0.131855 -0.907752 0
-0.056388 -0.971827 0
+0.035522 -1.022688 0
+0.142102 -1.054909 0
+0.259899 -1.063634 0
+0.384000 -1.045333 0
+0.508602 -0.998402 0
+0.627787 -0.923386 0
+0.736296 -0.822778 0
+0.830075 -0.700458 0
+0.906476 -0.560985 0
+0.964118 -0.408940 0
+1.002519 -0.248511 0
+1.021671 -0.083345 0
+1.021671 +0.083345 0
+1.002519 +0.248511 0
+0.964118 +0.408940 0
+0.906476 +0.560985 0
+0.830075 +0.700458 0
+0.736296 +0.822778 0
+0.627787 +0.923386 0
+0.508602 +0.998402 0
+0.384000 +1.045333 0
+0.259899 +1.063634 0
+0.142102 +1.054909 0
+0.035522 +1.022688 0
-0.056388 +0.971827 0
-0.131855 +0.907752 0
-0.190679 +0.835739 0
-0.233886 +0.760387 0
-0.263300 +0.685339 0
-0.379875 +0.740338 0
-0.520308 +0.837813 0
-0.703766 +0.935153 0
-0.939066 +1.020907 0
-1.231642 +1.075910 0
-1.577240 +1.072059 0
-1.952672 +0.975420 0
-2.307824 +0.758026 0
-2.569438 +0.418624 0
-0.322957 +0.693594 0
-0.445292 +0.788614 0
-0.606079 +0.887062 0
-0.814460 +0.980470 0
-1.078135 +1.053804 0
-1.398699 +1.083412 0
-1.763682 +1.037438 0
-2.137003 +0.882794 0
-2.455258 +0.602014 0
-2.641843 +0.214789 0
+4.903798 +0.138610 0
+3.030125 +2.867738 0
+2.568243 -2.964660 0
-0.512982 -4.403472 0
-0.502565 +4.360032 0
+7.314356 -1.913117 0
+7.128711 +2.267407 0
-2.329715 +4.362805 0
-2.401169 -4.424467 0
+1.607508 -5.548545 0
+1.696739 +5.639970 0
+3.043255 -0.698868 0
+4.984496 -4.336802 0
+5.709197 +4.230884 0
+3.164392 +0.951502 0
+1.584280 +3.214111 0
-0.949412 -2.606128 0
-0.930368 +2.581273 0
-0.948973 -6.296571 0
-0.960814 +6.224888 0
+3.704356 -1.545848 0
-4.557986 -2.507528 0
-4.529548 +2.527861 0
+8.156675 -0.305950 0
-2.205151 +6.245606 0
-2.241604 -6.347100 0
+2.169273 -1.756448 0
+4.187617 +1.838199 0
+3.034336 -7.409990 0
+3.264427 +7.588677 0
-4.824045 +6.248970 0
-4.918106 -6.308716 0
+6.247152 +0.231018 0
+0.127311 -2.746803 0
+0.137073 +2.736819 0
+8.952861 -3.546010 0
+8.359804 +4.487993 0
+5.215723 -1.885431 0
+2.311327 +0.065434 0
+8.689679 -1.710024 0
+8.380446 +1.231797 0
-1.624060 +4.902457 0
-1.670895 -4.981174 0
-1.491668 -2.304414 0
-1.474818 +2.293198 0
+5.512724 +1.513368 0
+3.581894 -0.091707 0
-3.098892 -3.253125 0
+7.649451 -5.158108 0
-0.615066 -2.774694 0
-0.602889 +2.751893 0
+0.810396 -4.288717 0
+0.852117 +4.301083 0
-0.695013 -1.671535 0
-0.689986 +1.667567 0
+1.465193 -3.275971 0
-0.085251 -8.287915 0
+3.065781 -2.021398 0
+1.841883 -0.599256 0
+1.266329 +1.450644 0
+1.297737 -1.609516 0
+6.260455 -3.338289 0
+3.536321 -4.665663 0
+4.025024 +4.805391 0
+3.215521 +1.828754 0
+1.743372 +0.963336 0
+1.880129 -2.407979 0
+2.063586 +2.027429 0
+9.615319 -2.500725 0
+9.454206 +2.551359 0
-7.417554 -2.643940 0
-7.410140 +2.664943 0
-0.353389 -1.785976 0
-0.348609 +1.778888 0
-6.955244 -4.437938 0
-6.888125 +4.455095 0
+0.046986 -5.388519 0
+0.031811 +5.373325 0
+0.904772 -2.157845 0
+0.931744 +2.106361 0
-3.051609 +3.240702 0
+3.976655 +0.729965 0
-1.484356 -3.282760 0
-1.449291 +3.246208 0
-0.123909 +8.313229 0
+4.345273 -2.695934 0
+2.314529 -4.162850 0
+2.584720 +4.207567 0
+4.165520 +3.151482 0
-0.086140 -1.765435 0
-0.083107 +1.761581 0
-1.067728 -3.858123 0
-1.036900 +3.808182 0
+7.160662 +0.039356 0
+5.776453 -6.673724 0
+6.367854 +6.556249 0
+5.165920 +3.026856 0
+4.345635 -0.826102 0
+3.404965 -3.080073 0
-5.101398 +1.883513 0
-5.081233 -1.845487 0
+3.057703 +0.324531 0
+1.324926 +0.948558 0
-1.044532 +5.170801 0
-1.067596 -5.251007 0
+2.585183 +1.621800 0
-3.008037 +5.575620 0
-3.094151 -5.672541 0
+2.426507 +0.952637 0
+0.676139 -6.367278 0
+0.650144 +6.401433 0
+1.571629 -1.101490 0
-2.941515 +8.291309 0
-2.958133 -8.385599 0
+2.611989 -2.247069 0
+2.538656 -1.239269 0
+5.878333 -0.777557 0
+8.366747 -4.322646 0
+10.039322 -3.876852 0
+8.569338 -6.110061 0
+9.403307 -4.988435 0
+4.432345 +0.487276 0
+4.111692 +1.252874 0
+4.759455 +1.727187 0
+5.171627 +0.724372 0
+4.630155 +1.057145 0
+7.133281 +0.967944 0
+6.622908 +0.167500 0
+6.003349 +0.718572 0
+6.263590 +1.892117 0
+6.508507 +0.962851 0
+1.436588 -0.351838 0
+1.692671 +0.181180 0
+2.021441 -0.317035 0
+1.539024 -0.109616 0
-0.508286 -1.742679 0
-0.401124 -1.155369 0
-0.225235 -1.345967 0
-0.328984 -1.279051 0
-0.223055 +1.343219 0
-0.399643 +1.154163 0
-0.502673 +1.736351 0
-0.326749 +1.276361 0
+5.709952 -2.557765 0
+5.579320 -1.359011 0
+6.459801 -1.294193 0
+6.794729 -2.698814 0
+6.143089 -1.973517 0
+4.584518 -7.194446 0
+3.440626 -5.763899 0
+4.262881 -4.613626 0
+5.344823 -5.411092 0
+4.404311 -5.762170 0
+6.033946 +5.268829 0
+4.881006 +4.699608 0
+3.822737 +5.927747 0
+5.021406 +7.286688 0
+4.945630 +5.852838 0
-0.724638 -7.133589 0
-1.653434 -8.642510 0
-2.573753 -7.252481 0
-1.593111 -6.462685 0
-1.634612 -7.418406 0
-1.585072 +6.371822 0
-2.542395 +7.143010 0
-1.681012 +8.578449 0
-0.759517 +7.082368 0
-1.643035 +7.321045 0
+7.701642 -0.126498 0
+7.937347 +1.684235 0
+8.168320 +0.466683 0
+7.726543 +0.755845 0
-1.029735 +5.575502 0
-1.288281 +5.076975 0
-1.908211 +5.519637 0
-1.461659 +5.642723 0
-1.960043 -5.613390 0
-1.320380 -5.154803 0
-1.038908 -5.654354 0
-1.489124 -5.731088 0
+8.332538 -1.046653 0
+8.118904 -1.786106 0
+7.212442 -0.829086 0
+7.821616 -0.971289 0
+1.139528 +1.777237 0
+1.011076 +1.112096 0
+0.729513 +1.528683 0
+0.891757 +1.326980 0
+3.555309 +0.879623 0
+3.213756 +1.371846 0
+3.673372 +1.869213 0
+3.638355 +1.349385 0
+4.764164 -1.312298 0
+4.635185 -0.374902 0
+5.380681 -0.293493 0
+5.090635 -0.827409 0
-6.072225 +7.934222 0
-6.071260 +5.384368 0
-8.259921 +5.606159 0
-7.252932 +6.812185 0
-8.309694 -5.596950 0
-6.155198 -5.395168 0
-6.131000 -7.971320 0
-7.326112 -6.828520 0
-7.002294 -2.063867 0
-9.233710 -3.094225 0
-9.129605 -2.254824 0
-9.224413 +3.111973 0
-7.010285 +2.071864 0
-9.127438 +2.260904 0
+6.102934 -0.198187 0
+5.656233 +0.261650 0
+0.722477 -1.554065 0
+1.035534 -1.182348 0
+1.124531 -1.877665 0
+0.893637 -1.374068 0
+5.336201 +2.481525 0
+5.393230 +3.465703 0
+6.438025 +3.445322 0
+5.886601 +2.799058 0
+9.632218 +1.946211 0
+10.316559 +3.081097 0
+10.562370 +2.128156 0
+8.469458 -0.478808 0
+9.172707 -1.674777 0
+8.717224 -1.133214 0
-0.633691 +1.223048 0
-1.270894 +1.673560 0
-1.056779 +1.978701 0
-0.915467 +1.461169 0
-1.067954 -1.987859 0
-1.277616 -1.676800 0
-0.635332 -1.223735 0
-0.919221 -1.463271 0
+0.469350 -3.635719 0
+0.615770 -2.440955 0
+1.147593 -2.740180 0
+1.163365 -3.767097 0
+0.830055 -3.148100 0
+1.237409 +3.759224 0
+1.214837 +2.671029 0
+0.638453 +2.422312 0
+0.493034 +3.630039 0
+0.875378 +3.125715 0
+9.385546 -2.903987 0
+10.348026 -2.299577 0
+10.430131 -2.897431 0
+9.018484 +3.436165 0
+9.014495 +5.652875 0
+9.797284 +4.337318 0
+7.474991 +5.574601 0
+6.715924 +8.034007 0
+7.989005 +6.922530 0
+6.896352 -4.212880 0
+8.092574 -2.903398 0
+7.519102 -3.520988 0
+7.745938 +3.422099 0
+6.966944 +4.390100 0
-4.165658 -4.599170 0
-5.701032 -3.432645 0
-3.973760 -2.938554 0
-5.024199 -4.096279 0
-3.931982 +2.944422 0
-5.650225 +3.454118 0
-4.079078 +4.568312 0
-4.949934 +4.093158 0
+4.795911 -2.336270 0
+4.027951 -2.072733 0
+4.032497 -1.216709 0
+4.406042 -1.729995 0
-0.873980 -2.265402 0
-1.149706 -2.866764 0
-1.555819 -2.850092 0
-1.153830 -2.476896 0
-1.527027 +2.826030 0
-1.123665 +2.835276 0
-0.860115 +2.249053 0
-1.135302 +2.458288 0
+4.661477 -3.441297 0
+3.503307 -3.788749 0
+3.871583 -2.947929 0
+4.081848 -3.694994 0
+5.660258 -3.894396 0
+5.206114 -3.052477 0
+9.180973 -2.224232 0
+8.640022 -2.477467 0
+8.805417 +1.940182 0
+8.382354 +2.583344 0
-2.781485 -6.019807 0
-2.835972 -5.113015 0
-2.034779 -4.737159 0
-2.400385 -5.371668 0
-1.974317 +4.659539 0
-2.749305 +5.036270 0
-2.714558 +5.916001 0
-2.330705 +5.279167 0
+2.830558 +1.731067 0
+2.792358 +0.959581 0
+2.516759 +1.340554 0
+2.838599 +1.354280 0
+3.243498 +4.598384 0
+4.114372 +3.903158 0
+3.576383 +3.070373 0
+2.845405 +3.502965 0
+3.448615 +3.782036 0
+2.338568 +0.546914 0
+3.102071 +0.577549 0
+2.799648 +0.227144 0
+2.750175 +0.574354 0
+6.790737 -5.968778 0
+6.175443 -4.866913 0
+0.284633 -1.739975 0
+0.513520 -1.709014 0
+0.289482 +1.733334 0
+0.520450 +1.699870 0
+1.853047 -3.750872 0
+1.701287 -2.816569 0
+2.208129 -2.729912 0
+2.483930 -3.519054 0
+2.063287 -3.205694 0
+9.799569 -2.038090 0
+8.599304 +0.898220 0
+8.990647 +1.507372 0
+0.437724 -4.832501 0
-0.241426 -4.839895 0
-0.201089 -3.750911 0
+0.110988 -4.232556 0
-0.191768 +3.726936 0
-0.246634 +4.811443 0
+0.446550 +4.842076 0
+0.118703 +4.220785 0
-1.916908 -3.805360 0
-2.764670 -4.011206 0
-2.079847 -2.686851 0
-2.100659 -3.344670 0
-2.051118 +2.673783 0
-2.698790 +3.970812 0
-1.866555 +3.759290 0
-2.055574 +3.314654 0
+2.540988 +2.545389 0
+1.855895 +2.658193 0
+2.039375 +3.730584 0
+2.318133 +3.105303 0
+1.700054 -0.854118 0
+1.255827 -0.781324 0
+1.346918 -0.571639 0
+3.948781 -0.420093 0
+3.800446 +0.285001 0
+4.204063 -0.000090 0
-3.564628 +5.793710 0
-3.299211 +4.827925 0
-3.656302 -5.882876 0
-3.393344 -4.886907 0
-4.005739 +7.576627 0
-3.265032 +6.620349 0
-4.071370 -7.675776 0
-3.327771 -6.728266 0
-3.442509 +1.630657 0
-4.335554 +1.315710 0
-4.910583 +2.125329 0
-3.821571 +1.349010 0
-4.910462 -2.088960 0
-4.321436 -1.299146 0
-3.450653 -1.617704 0
-3.809118 -1.323662 0
+2.033350 -4.871094 0
+1.192344 -4.905821 0
+1.561067 -4.333517 0
+1.247168 +4.948198 0
+2.206891 +4.955258 0
+1.679114 +4.357180 0
+3.265171 +0.163595 0
+3.322286 -0.410778 0
+2.704920 -0.337247 0
+3.006313 -0.085801 0
+1.585083 +1.755394 0
+1.456073 +2.219950 0
+1.505485 +0.563991 0
+2.064729 +0.956788 0
+1.886625 +0.544963 0
+1.577768 -2.026517 0
+1.390045 -2.367949 0
-0.476781 -2.262320 0
-0.819451 -2.680667 0
-0.668192 -2.224468 0
-0.802186 +2.654070 0
-0.467077 +2.249435 0
-0.657897 +2.210224 0
-0.788651 -4.096323 0
-0.805408 -3.312066 0
-0.338000 -2.831404 0
-0.521049 -3.486123 0
-0.328572 +2.813563 0
-0.787988 +3.276909 0
-0.764631 +4.045655 0
-0.500456 +3.449152 0
+4.199621 +2.474242 0
+3.151858 +2.323550 0
+3.652091 +2.447060 0
+6.332956 -8.097569 0
+7.547070 -7.166444 0
-0.006663 -1.460954 0
-0.200940 -1.794575 0
-0.113715 -1.392419 0
-0.196528 +1.790586 0
-0.004966 +1.461110 0
-0.112240 +1.391231 0
+1.165722 +0.742883 0
+1.484212 +0.960393 0
+1.278785 +0.625796 0
-2.350268 +2.005962 0
-1.746898 +1.881596 0
-2.365885 -2.006894 0
-1.758375 -1.885122 0
+2.870206 -4.487490 0
+2.133781 -6.320358 0
+2.636012 -5.394343 0
+2.264638 +6.465388 0
+2.889955 +5.539821 0
-0.043840 -2.053847 0
-0.259680 -2.256333 0
-0.039430 +2.048976 0
-0.255473 +2.243315 0
+3.436130 +0.481056 0
-0.827587 -4.923668 0
-1.367111 -4.407546 0
-1.076553 -4.641321 0
-1.326455 +4.343603 0
-0.811721 +4.856991 0
-1.045365 +4.574823 0
+0.110709 +1.602111 0
+0.109181 -1.607435 0
-0.037234 -10.149479 0
-3.359836 -9.778198 0
-1.738487 -10.131565 0
-3.355124 +9.710876 0
-0.066677 +10.173908 0
-1.767127 +10.095237 0
-7.390014 -3.479554 0
-8.953054 -4.308845 0
-7.356971 +3.507491 0
-8.921488 +4.326227 0
+2.777583 -0.976490 0
+2.211730 -0.899592 0
+2.431800 -0.619868 0
+2.335792 -1.492836 0
+1.879047 -1.432700 0
+2.033535 -1.165858 0
-0.401949 -5.903294 0
-0.623651 -5.342564 0
-0.421525 +5.858849 0
-0.626662 +5.280201 0
+8.429688 +0.216641 0
-1.309091 -3.605447 0
-1.024608 -3.124868 0
-1.273253 +3.559005 0
-0.999723 +3.088840 0
+1.442488 -1.350742 0
+2.026558 -2.055035 0
+1.733830 -1.715649 0
+2.970772 -3.090062 0
+2.604995 -2.527213 0
+2.793790 -2.166834 0
+3.261004 -2.502750 0
+2.914594 -2.575650 0
+1.901473 +1.402764 0
+1.319954 +1.151934 0
+1.586506 +1.328760 0
+3.375332 -1.813743 0
+3.637356 -2.331624 0
+1.521492 -8.232870 0
+0.502209 -7.009673 0
+1.093879 -6.085500 0
+1.328022 -6.948851 0
+1.108274 +6.150217 0
+0.472063 +7.042434 0
+1.553425 +8.360278 0
+1.356854 +7.059376 0
+3.377031 -1.095158 0
+3.669465 -0.782031 0
-4.781802 +8.943767 0
-4.823388 -9.014719 0
-1.659943 -4.143271 0
-1.611083 +4.085189 0
+2.965120 -3.723467 0
+1.154389 -0.984642 0
+2.823454 -1.609248 0
+3.089370 -1.369617 0
+1.092380 +0.907556 0
+2.412618 +1.777797 0
+2.217065 +1.381037 0
+2.722859 +2.103999 0
+2.430637 -2.047063 0
+2.315577 -2.341336 0
+4.744716 +3.111693 0
+4.789447 +3.824169 0
+4.772459 +2.436161 0
+0.379292 -5.957192 0
-0.070304 -6.535403 0
+0.353679 +5.968170 0
-0.106232 +6.531118 0
-5.971729 -2.186244 0
-6.045804 -2.776324 0
-5.983152 +2.219753 0
-6.021347 +2.808371 0
+2.597169 -1.822259 0
+0.785949 -5.440066 0
+0.790908 +5.470203 0
-5.386237 +1.659844 0
-5.373847 -1.648995 0
+6.610894 -0.565238 0
-2.971151 -1.902292 0
+3.366117 -9.429319 0
+4.923073 -8.837591 0
+1.695681 -9.889552 0
-2.956406 +1.907534 0
-0.414056 +0.962112 0
-0.414353 -0.961290 0
+3.507245 +9.551738 0
+1.721114 +9.998596 0
+5.203982 +8.912543 0
+8.032374 -4.753710 0
+8.845646 -4.658971 0
+9.027310 -5.577825 0
+8.075318 -5.617843 0
+8.683468 -3.940176 0
+9.455947 -3.741509 0
+9.762871 -4.446043 0
+10.681248 -3.858707 0
+10.000700 -5.234439 0
+9.096085 -6.567093 0
+4.667185 +0.319652 0
+4.532804 +0.766316 0
+4.900861 +0.898555 0
+5.038265 +0.426087 0
+4.203004 +0.615146 0
+4.046532 +0.986181 0
+4.369208 +1.162519 0
+4.152957 +1.540132 0
+4.470929 +1.791124 0
+4.697370 +1.385281 0
+5.134876 +1.633070 0
+5.340551 +1.109465 0
+7.125681 +1.596789 0
+6.826839 +0.969848 0
+6.392353 +1.422816 0
+6.686415 +2.092048 0
+7.137577 +0.499476 0
+6.897028 +0.103187 0
+6.564273 +0.563007 0
+6.436511 +0.199663 0
+6.126137 +0.475707 0
+6.255597 +0.841726 0
+5.764863 +1.121656 0
+5.880628 +1.705629 0
+1.637414 -0.466931 0
+1.490920 -0.235300 0
+1.777047 -0.201464 0
+1.934449 -0.465102 0
+1.224135 -0.250637 0
+1.278335 -0.043299 0
+1.345371 +0.189713 0
+1.619646 +0.027449 0
+1.994674 +0.137070 0
+2.169655 -0.140007 0
-0.435128 -1.773025 0
-0.414270 -1.500619 0
-0.280990 -1.317821 0
-0.287601 -1.558969 0
-0.610691 -1.725020 0
-0.534526 -1.399436 0
-0.370488 -1.222397 0
-0.301705 -0.969270 0
-0.242571 -1.068016 0
-0.159335 -1.137952 0
-0.284226 +1.554151 0
-0.278772 +1.315076 0
-0.410530 +1.496185 0
-0.429873 +1.766217 0
-0.158320 +1.136533 0
-0.241534 +1.066627 0
-0.301011 +0.968578 0
-0.368626 +1.220501 0
-0.531535 +1.396883 0
-0.605301 +1.719884 0
+5.973290 -2.938153 0
+5.933991 -2.269634 0
+6.453706 -2.332846 0
+6.540712 -3.023872 0
+5.455557 -2.213273 0
+5.401777 -1.626325 0
+5.853531 -1.661774 0
+5.731888 -1.070370 0
+6.164577 -1.034907 0
+6.306583 -1.633411 0
+6.874228 -1.612946 0
+7.072780 -2.303904 0
+5.190446 -6.978519 0
+4.499637 -6.435133 0
+4.878680 -5.617347 0
+5.551538 -6.008475 0
+3.800229 -7.375771 0
+3.282892 -6.550559 0
+3.912768 -5.791626 0
+3.504416 -5.193789 0
+3.894861 -4.658035 0
+4.339262 -5.160305 0
+4.625756 -4.494014 0
+5.159362 -4.848655 0
+6.197771 +5.877609 0
+5.503933 +5.601787 0
+4.995119 +6.528951 0
+5.715019 +6.978508 0
+5.867159 +4.726442 0
+5.303621 +4.489017 0
+4.922132 +5.250551 0
+4.448472 +4.776749 0
+3.944106 +5.348828 0
+4.374568 +5.928836 0
+3.597534 +6.730676 0
+4.135175 +7.531120 0
-0.853565 -6.705529 0
-1.167769 -7.301021 0
-1.621673 -6.921868 0
-1.265746 -6.395408 0
-0.450662 -7.704849 0
-0.844896 -8.533499 0
-1.656476 -8.000340 0
-2.317459 -8.567001 0
-2.760241 -7.791759 0
-2.111706 -7.369803 0
-2.402331 -6.780920 0
-1.921968 -6.424169 0
-1.268435 +6.313658 0
-1.620977 +6.827693 0
-1.191611 +7.226159 0
-0.876455 +6.642755 0
-1.900118 +6.326889 0
-2.368050 +6.675671 0
-2.100767 +7.264372 0
-2.735491 +7.689042 0
-2.324694 +8.485150 0
-1.674093 +7.917527 0
-0.884296 +8.515285 0
-0.490687 +7.688726 0
+7.944698 -0.220321 0
+7.696302 +0.312645 0
+7.967098 +0.606800 0
+8.139806 +0.080329 0
+7.441891 -0.045930 0
+7.443331 +0.862989 0
+7.564017 +1.983058 0
+7.811549 +1.213873 0
+8.185534 +1.450380 0
+8.250185 +0.851161 0
-1.002670 +5.892440 0
-1.244696 +5.617960 0
-1.524648 +5.995069 0
-1.039694 +5.369646 0
-1.168763 +5.128001 0
-1.372860 +5.352114 0
-1.461926 +4.998144 0
-1.760446 +5.201801 0
-1.689488 +5.592820 0
-2.051379 +5.870001 0
-1.543340 -6.084831 0
-1.262708 -5.702066 0
-1.002018 -5.968340 0
-2.096423 -5.967375 0
-1.729056 -5.684764 0
-1.809729 -5.287592 0
-1.501488 -5.076908 0
-1.402952 -5.434947 0
-1.196445 -5.207224 0
-1.056205 -5.449375 0
+8.222008 -0.678068 0
+8.091152 -1.014514 0
+7.743961 -0.547840 0
+8.487661 -1.382652 0