# vtk DataFile Version 2.0
MyTitle
ASCII
DATASET UNSTRUCTURED_GRID
POINTS 1311 double
-10.000000 0.000000 0.000000
-6.000000 0.000000 0.000000
-4.000000 0.000000 0.000000
0.000000 0.000000 0.000000
4.000000 0.000000 0.000000
6.000000 0.000000 0.000000
10.000000 0.000000 0.000000
-10.000000 5.000000 0.000000
-5.000000 5.000000 0.000000
5.000000 5.000000 0.000000
0.000000 5.000000 0.000000
10.000000 5.000000 0.000000
-5.000000 1.000000 0.000000
5.000000 1.000000 0.000000
-5.707000 0.707000 0.000000
-4.293000 0.707000 0.000000
4.293000 0.707000 0.000000
5.707000 0.707000 0.000000
0.400000 0.000000 0.000000
0.800000 0.000000 0.000000
1.200000 0.000000 0.000000
1.600000 0.000000 0.000000
2.000000 0.000000 0.000000
2.400000 0.000000 0.000000
2.800000 0.000000 0.000000
3.200000 0.000000 0.000000
3.600000 0.000000 0.000000
0.200000 0.000000 0.000000
0.600000 0.000000 0.000000
1.000000 0.000000 0.000000
1.400000 0.000000 0.000000
1.800000 0.000000 0.000000
2.200000 0.000000 0.000000
2.600000 0.000000 0.000000
3.000000 0.000000 0.000000
3.400000 0.000000 0.000000
3.800000 0.000000 0.000000
6.400000 0.000000 0.000000
6.800000 0.000000 0.000000
7.200000 0.000000 0.000000
7.600000 0.000000 0.000000
8.000000 0.000000 0.000000
8.400000 0.000000 0.000000
8.800000 0.000000 0.000000
9.200000 0.000000 0.000000
9.600000 0.000000 0.000000
6.200000 0.000000 0.000000
6.600000 0.000000 0.000000
7.000000 0.000000 0.000000
7.400000 0.000000 0.000000
7.800000 0.000000 0.000000
8.200000 0.000000 0.000000
8.600000 0.000000 0.000000
9.000000 0.000000 0.000000
9.400000 0.000000 0.000000
9.800000 0.000000 0.000000
10.000000 1.000000 0.000000
10.000000 2.000000 0.000000
10.000000 3.000000 0.000000
10.000000 4.000000 0.000000
10.000000 0.500000 0.000000
10.000000 1.500000 0.000000
10.000000 2.500000 0.000000
10.000000 3.500000 0.000000
10.000000 4.500000 0.000000
9.000000 5.000000 0.000000
8.000000 5.000000 0.000000
7.000000 5.000000 0.000000
6.000000 5.000000 0.000000
9.500000 5.000000 0.000000
8.500000 5.000000 0.000000
7.500000 5.000000 0.000000
6.500000 5.000000 0.000000
5.500000 5.000000 0.000000
5.000000 4.600000 0.000000
5.000000 4.200000 0.000000
5.000000 3.800000 0.000000
5.000000 3.400000 0.000000
5.000000 3.000000 0.000000
5.000000 2.600000 0.000000
5.000000 2.200000 0.000000
5.000000 1.800000 0.000000
5.000000 1.400000 0.000000
5.000000 4.800000 0.000000
5.000000 4.400000 0.000000
5.000000 4.000000 0.000000
5.000000 3.600000 0.000000
5.000000 3.200000 0.000000
5.000000 2.800000 0.000000
5.000000 2.400000 0.000000
5.000000 2.000000 0.000000
5.000000 1.600000 0.000000
5.000000 1.200000 0.000000
4.000000 5.000000 0.000000
3.000000 5.000000 0.000000
2.000000 5.000000 0.000000
1.000000 5.000000 0.000000
4.500000 5.000000 0.000000
3.500000 5.000000 0.000000
2.500000 5.000000 0.000000
1.500000 5.000000 0.000000
0.500000 5.000000 0.000000
0.000000 4.000000 0.000000
0.000000 3.000000 0.000000
0.000000 2.000000 0.000000
0.000000 1.000000 0.000000
0.000000 4.500000 0.000000
0.000000 3.500000 0.000000
0.000000 2.500000 0.000000
0.000000 1.500000 0.000000
0.000000 0.500000 0.000000
-1.000000 5.000000 0.000000
-2.000000 5.000000 0.000000
-3.000000 5.000000 0.000000
-4.000000 5.000000 0.000000
-0.500000 5.000000 0.000000
-1.500000 5.000000 0.000000
-2.500000 5.000000 0.000000
-3.500000 5.000000 0.000000
-4.500000 5.000000 0.000000
-5.000000 4.600000 0.000000
-5.000000 4.200000 0.000000
-5.000000 3.800000 0.000000
-5.000000 3.400000 0.000000
-5.000000 3.000000 0.000000
-5.000000 2.600000 0.000000
-5.000000 2.200000 0.000000
-5.000000 1.800000 0.000000
-5.000000 1.400000 0.000000
-5.000000 4.800000 0.000000
-5.000000 4.400000 0.000000
-5.000000 4.000000 0.000000
-5.000000 3.600000 0.000000
-5.000000 3.200000 0.000000
-5.000000 2.800000 0.000000
-5.000000 2.400000 0.000000
-5.000000 2.000000 0.000000
-5.000000 1.600000 0.000000
-5.000000 1.200000 0.000000
-6.000000 5.000000 0.000000
-7.000000 5.000000 0.000000
-8.000000 5.000000 0.000000
-9.000000 5.000000 0.000000
-5.500000 5.000000 0.000000
-6.500000 5.000000 0.000000
-7.500000 5.000000 0.000000
-8.500000 5.000000 0.000000
-9.500000 5.000000 0.000000
-10.000000 4.000000 0.000000
-10.000000 3.000000 0.000000
-10.000000 2.000000 0.000000
-10.000000 1.000000 0.000000
-10.000000 4.500000 0.000000
-10.000000 3.500000 0.000000
-10.000000 2.500000 0.000000
-10.000000 1.500000 0.000000
-10.000000 0.500000 0.000000
-9.600000 0.000000 0.000000
-9.200000 0.000000 0.000000
-8.800000 0.000000 0.000000
-8.400000 0.000000 0.000000
-8.000000 0.000000 0.000000
-7.600000 0.000000 0.000000
-7.200000 0.000000 0.000000
-6.800000 0.000000 0.000000
-6.400000 0.000000 0.000000
-9.800000 0.000000 0.000000
-9.400000 0.000000 0.000000
-9.000000 0.000000 0.000000
-8.600000 0.000000 0.000000
-8.200000 0.000000 0.000000
-7.800000 0.000000 0.000000
-7.400000 0.000000 0.000000
-7.000000 0.000000 0.000000
-6.600000 0.000000 0.000000
-6.200000 0.000000 0.000000
-3.600000 0.000000 0.000000
-3.200000 0.000000 0.000000
-2.800000 0.000000 0.000000
-2.400000 0.000000 0.000000
-2.000000 0.000000 0.000000
-1.600000 0.000000 0.000000
-1.200000 0.000000 0.000000
-0.800000 0.000000 0.000000
-0.400000 0.000000 0.000000
-3.800000 0.000000 0.000000
-3.400000 0.000000 0.000000
-3.000000 0.000000 0.000000
-2.600000 0.000000 0.000000
-2.200000 0.000000 0.000000
-1.800000 0.000000 0.000000
-1.400000 0.000000 0.000000
-1.000000 0.000000 0.000000
-0.600000 0.000000 0.000000
-0.200000 0.000000 0.000000
-5.987688 0.156434 0.000000
-5.951057 0.309017 0.000000
-5.891007 0.453990 0.000000
-5.809017 0.587785 0.000000
-5.996917 0.078459 0.000000
-5.972370 0.233445 0.000000
-5.923880 0.382683 0.000000
-5.852640 0.522499 0.000000
-5.760406 0.649448 0.000000
-5.587696 0.808895 0.000000
-5.453922 0.890872 0.000000
-5.308970 0.950913 0.000000
-5.156411 0.987539 0.000000
-5.649350 0.760291 0.000000
-5.522420 0.852511 0.000000
-5.382626 0.923740 0.000000
-5.233410 0.972223 0.000000
-5.078447 0.996767 0.000000
-4.843566 0.987688 0.000000
-4.690983 0.951057 0.000000
-4.546010 0.891007 0.000000
-4.412215 0.809017 0.000000
-4.921541 0.996917 0.000000
-4.766555 0.972370 0.000000
-4.617317 0.923880 0.000000
-4.477501 0.852640 0.000000
-4.350552 0.760406 0.000000
-4.191105 0.587696 0.000000
-4.109128 0.453922 0.000000
-4.049087 0.308970 0.000000
-4.012461 0.156411 0.000000
-4.239709 0.649350 0.000000
-4.147489 0.522420 0.000000
-4.076260 0.382626 0.000000
-4.027777 0.233410 0.000000
-4.003233 0.078447 0.000000
4.012312 0.156434 0.000000
4.048943 0.309017 0.000000
4.108993 0.453990 0.000000
4.190983 0.587785 0.000000
4.003083 0.078459 0.000000
4.027630 0.233445 0.000000
4.076120 0.382683 0.000000
4.147360 0.522499 0.000000
4.239594 0.649448 0.000000
4.412304 0.808895 0.000000
4.546078 0.890872 0.000000
4.691030 0.950913 0.000000
4.843589 0.987539 0.000000
4.350650 0.760291 0.000000
4.477580 0.852511 0.000000
4.617374 0.923740 0.000000
4.766590 0.972223 0.000000
4.921553 0.996767 0.000000
5.156434 0.987688 0.000000
5.309017 0.951057 0.000000
5.453990 0.891007 0.000000
5.587785 0.809017 0.000000
5.078459 0.996917 0.000000
5.233445 0.972370 0.000000
5.382683 0.923880 0.000000
5.522499 0.852640 0.000000
5.649448 0.760406 0.000000
5.808895 0.587696 0.000000
5.890872 0.453922 0.000000
5.950913 0.308970 0.000000
5.987539 0.156411 0.000000
5.760291 0.649350 0.000000
5.852511 0.522420 0.000000
5.923740 0.382626 0.000000
5.972223 0.233410 0.000000
5.996767 0.078447 0.000000
-6.136300 1.136300 0.000000
-6.565600 1.565600 0.000000
-6.994900 1.994900 0.000000
-7.424200 2.424200 0.000000
-7.853500 2.853500 0.000000
-8.282800 3.282800 0.000000
-8.712100 3.712100 0.000000
-9.141400 4.141400 0.000000
-9.570700 4.570700 0.000000
-5.921650 0.921650 0.000000
-6.350950 1.350950 0.000000
-6.780250 1.780250 0.000000
-7.209550 2.209550 0.000000
-7.638850 2.638850 0.000000
-8.068150 3.068150 0.000000
-8.497450 3.497450 0.000000
-8.926750 3.926750 0.000000
-9.356050 4.356050 0.000000
-9.785350 4.785350 0.000000
-3.863700 1.136300 0.000000
-3.434400 1.565600 0.000000
-3.005100 1.994900 0.000000
-2.575800 2.424200 0.000000
-2.146500 2.853500 0.000000
-1.717200 3.282800 0.000000
-1.287900 3.712100 0.000000
-0.858600 4.141400 0.000000
-0.429300 4.570700 0.000000
-4.078350 0.921650 0.000000
-3.649050 1.350950 0.000000
-3.219750 1.780250 0.000000
-2.790450 2.209550 0.000000
-2.361150 2.638850 0.000000
-1.931850 3.068150 0.000000
-1.502550 3.497450 0.000000
-1.073250 3.926750 0.000000
-0.643950 4.356050 0.000000
-0.214650 4.785350 0.000000
3.863700 1.136300 0.000000
3.434400 1.565600 0.000000
3.005100 1.994900 0.000000
2.575800 2.424200 0.000000
2.146500 2.853500 0.000000
1.717200 3.282800 0.000000
1.287900 3.712100 0.000000
0.858600 4.141400 0.000000
0.429300 4.570700 0.000000
4.078350 0.921650 0.000000
3.649050 1.350950 0.000000
3.219750 1.780250 0.000000
2.790450 2.209550 0.000000
2.361150 2.638850 0.000000
1.931850 3.068150 0.000000
1.502550 3.497450 0.000000
1.073250 3.926750 0.000000
0.643950 4.356050 0.000000
0.214650 4.785350 0.000000
6.136300 1.136300 0.000000
6.565600 1.565600 0.000000
6.994900 1.994900 0.000000
7.424200 2.424200 0.000000
7.853500 2.853500 0.000000
8.282800 3.282800 0.000000
8.712100 3.712100 0.000000
9.141400 4.141400 0.000000
9.570700 4.570700 0.000000
5.921650 0.921650 0.000000
6.350950 1.350950 0.000000
6.780250 1.780250 0.000000
7.209550 2.209550 0.000000
7.638850 2.638850 0.000000
8.068150 3.068150 0.000000
8.497450 3.497450 0.000000
8.926750 3.926750 0.000000
9.356050 4.356050 0.000000
9.785350 4.785350 0.000000
-9.580902 3.658779 0.000000
-9.161803 3.317557 0.000000
-8.742705 2.976336 0.000000
-8.323607 2.635114 0.000000
-7.904508 2.293893 0.000000
-7.485410 1.952671 0.000000
-7.066312 1.611450 0.000000
-6.647214 1.270228 0.000000
-6.228115 0.929007 0.000000
-9.589101 2.745399 0.000000
-9.178201 2.490798 0.000000
-8.767302 2.236197 0.000000
-8.356403 1.981596 0.000000
-7.945503 1.726995 0.000000
-7.534604 1.472394 0.000000
-7.123705 1.217793 0.000000
[...]
POINT_DATA 1311
VECTORS sol double
-0.480000 -0.053333 0
-12.000000 -0.099174 0
+12.000000 -0.148148 0
+0.480000 -0.480000 0
+0.148148 -12.000000 0
+0.099174 +12.000000 0
+0.053333 +0.480000 0
+0.000000 +0.000000 0
+0.000000 +0.000000 0
+0.000000 +0.000000 0
+0.000000 +0.000000 0
+0.000000 +0.000000 0
-12.000000 -0.130044 0
+0.000000 +0.000000 0
-16.975689 -0.110862 0
-0.000000 -0.148236 0
+0.000000 +0.000000 0
+0.000000 +0.000000 0
+0.411523 -0.567108 0
+0.356718 -0.680272 0
+0.312175 -0.831025 0
+0.275482 -1.038062 0
+0.244898 -1.333333 0
+0.219138 -1.775148 0
+0.197239 -2.479339 0
+0.178465 -3.703704 0
+0.162250 -6.122449 0
+0.443787 -0.520833 0
+0.382653 -0.619835 0
+0.333333 -0.750000 0
+0.292969 -0.925926 0
+0.259516 -1.171875 0
+0.231481 -1.530612 0
+0.207756 -2.083333 0
+0.187500 -3.000000 0
+0.170068 -4.687500 0
+0.154959 -8.333333 0
+0.092336 +6.122449 0
+0.086182 +3.703704 0
+0.080623 +2.479339 0
+0.075586 +1.775148 0
+0.071006 +1.333333 0
+0.066830 +1.038062 0
+0.063012 +0.831025 0
+0.059512 +0.680272 0
+0.056296 +0.567108 0
+0.095663 +8.333333 0
+0.089180 +4.687500 0
+0.083333 +3.000000 0
+0.078044 +2.083333 0
+0.073242 +1.530612 0
+0.068871 +1.171875 0
+0.064879 +0.925926 0
+0.061224 +0.750000 0
+0.057870 +0.619835 0
+0.054785 +0.520833 0
+0.000000 +0.000000 0
+0.000000 +0.000000 0
+0.000000 +0.000000 0
+0.000000 +0.000000 0
+0.000000 +0.000000 0
+0.000000 +0.000000 0
+0.000000 +0.000000 0
+0.000000 +0.000000 0
+0.000000 +0.000000 0
+0.000000 +0.000000 0
+0.000000 +0.000000 0
+0.000000 +0.000000 0
+0.000000 +0.000000 0
+0.000000 +0.000000 0
+0.000000 +0.000000 0
+0.000000 +0.000000 0
+0.000000 +0.000000 0
+0.000000 +0.000000 0
+0.000000 +0.000000 0
+0.000000 +0.000000 0
+0.000000 +0.000000 0
+0.000000 +0.000000 0
+0.000000 +0.000000 0
+0.000000 +0.000000 0
+0.000000 +0.000000 0
+0.000000 +0.000000 0
+0.000000 +0.000000 0
+0.000000 +0.000000 0
+0.000000 +0.000000 0
+0.000000 +0.000000 0
+0.000000 +0.000000 0
+0.000000 +0.000000 0
+0.000000 +0.000000 0
+0.000000 +0.000000 0
+0.000000 +0.000000 0
+0.000000 +0.000000 0
+0.000000 +0.000000 0
+0.000000 +0.000000 0
+0.000000 +0.000000 0
+0.000000 +0.000000 0
+0.000000 +0.000000 0
+0.000000 +0.000000 0
+0.000000 +0.000000 0
+0.000000 +0.000000 0
+0.000000 +0.000000 0
+0.000000 +0.000000 0
+0.000000 +0.000000 0
+0.000000 +0.000000 0
+0.000000 +0.000000 0
+0.000000 +0.000000 0
+0.000000 +0.000000 0
+0.000000 +0.000000 0
+0.000000 +0.000000 0
+0.000000 +0.000000 0
+0.000000 +0.000000 0
+0.000000 +0.000000 0
+0.000000 +0.000000 0
+0.000000 +0.000000 0
+0.000000 +0.000000 0
+0.000000 +0.000000 0
+0.000000 +0.000000 0
+0.000000 +0.000000 0
+0.000000 +0.000000 0
+0.000000 +0.000000 0
+0.000000 +0.000000 0
+0.000000 +0.000000 0
+0.000000 +0.000000 0
+0.000000 +0.000000 0
+0.000000 +0.000000 0
+0.000000 +0.000000 0
+0.000000 +0.000000 0
+0.000000 +0.000000 0
+0.000000 +0.000000 0
+0.000000 +0.000000 0
+0.000000 +0.000000 0
+0.000000 +0.000000 0
+0.000000 +0.000000 0
+0.000000 +0.000000 0
+0.000000 +0.000000 0
+0.000000 +0.000000 0
+0.000000 +0.000000 0
+0.000000 +0.000000 0
+0.000000 +0.000000 0
+0.000000 +0.000000 0
+0.000000 +0.000000 0
+0.000000 +0.000000 0
+0.000000 +0.000000 0
+0.000000 +0.000000 0
+0.000000 +0.000000 0
+0.000000 +0.000000 0
+0.000000 +0.000000 0
+0.000000 +0.000000 0
+0.000000 +0.000000 0
+0.000000 +0.000000 0
+0.000000 +0.000000 0
+0.000000 +0.000000 0
+0.000000 +0.000000 0
+0.000000 +0.000000 0
+0.000000 +0.000000 0
+0.000000 +0.000000 0
+0.000000 +0.000000 0
-0.567108 -0.056296 0
-0.680272 -0.059512 0
-0.831025 -0.063012 0
-1.038062 -0.066830 0
-1.333333 -0.071006 0
-1.775148 -0.075586 0
-2.479339 -0.080623 0
-3.703704 -0.086182 0
-6.122449 -0.092336 0
-0.520833 -0.054785 0
-0.619835 -0.057870 0
-0.750000 -0.061224 0
-0.925926 -0.064879 0
-1.171875 -0.068871 0
-1.530612 -0.073242 0
-2.083333 -0.078044 0
-3.000000 -0.083333 0
-4.687500 -0.089180 0
-8.333333 -0.095663 0
+6.122449 -0.162250 0
+3.703704 -0.178465 0
+2.479339 -0.197239 0
+1.775148 -0.219138 0
+1.333333 -0.244898 0
+1.038062 -0.275482 0
+0.831025 -0.312175 0
+0.680272 -0.356718 0
+0.567108 -0.411523 0
+8.333333 -0.154959 0
+4.687500 -0.170068 0
+3.000000 -0.187500 0
+2.083333 -0.207756 0
+1.530612 -0.231481 0
+1.171875 -0.259516 0
+0.925926 -0.292969 0
+0.750000 -0.333333 0
+0.619835 -0.382653 0
+0.520833 -0.443787 0
-13.729474 -0.100780 0
-15.120882 -0.102763 0
-16.139964 -0.105112 0
-16.761627 -0.107816 0
-12.904517 -0.099929 0
-14.469783 -0.101725 0
-15.678756 -0.103892 0
-16.501665 -0.106420 0
-16.918248 -0.109297 0
-16.766691 -0.114225 0
-16.144840 -0.117876 0
-15.125450 -0.121773 0
-13.733621 -0.125855 0
-16.923359 -0.112505 0
-16.506650 -0.116017 0
-15.683492 -0.119797 0
-14.474155 -0.123795 0
-12.908415 -0.127942 0
-9.975047 -0.134238 0
-7.704474 -0.138312 0
-5.244192 -0.142115 0
-2.654781 -0.145484 0
-11.021499 -0.132148 0
-8.867095 -0.136299 0
-6.494353 -0.140257 0
-3.961699 -0.143865 0
-1.331495 -0.146949 0
+2.655583 -0.150212 0
+5.245777 -0.151263 0
+7.706802 -0.151284 0
+9.978060 -0.150235 0
+1.331897 -0.149332 0
+3.962896 -0.150861 0
+6.496315 -0.151406 0
+8.869773 -0.150893 0
+11.024828 -0.149315 0
+0.000000 +0.000000 0
+0.000000 +0.000000 0
+0.000000 +0.000000 0
+0.000000 +0.000000 0
+0.000000 +0.000000 0
+0.000000 +0.000000 0
+0.000000 +0.000000 0
+0.000000 +0.000000 0
+0.000000 +0.000000 0
+0.000000 +0.000000 0
+0.000000 +0.000000 0
+0.000000 +0.000000 0
+0.000000 +0.000000 0
+0.000000 +0.000000 0
+0.000000 +0.000000 0
+0.000000 +0.000000 0
+0.000000 +0.000000 0
+0.000000 +0.000000 0
+0.000000 +0.000000 0
+0.000000 +0.000000 0
+0.000000 +0.000000 0
+0.000000 +0.000000 0
+0.000000 +0.000000 0
+0.000000 +0.000000 0
+0.000000 +0.000000 0
+0.000000 +0.000000 0
+0.000000 +0.000000 0
+0.000000 +0.000000 0
+0.000000 +0.000000 0
+0.000000 +0.000000 0
+0.000000 +0.000000 0
+0.000000 +0.000000 0
+0.000000 +0.000000 0
+0.000000 +0.000000 0
+0.000000 +0.000000 0
+0.000000 +0.000000 0
+0.000000 +0.000000 0
+0.000000 +0.000000 0
+0.000000 +0.000000 0
+0.000000 +0.000000 0
+0.000000 +0.000000 0
+0.000000 +0.000000 0
+0.000000 +0.000000 0
+0.000000 +0.000000 0
+0.000000 +0.000000 0
+0.000000 +0.000000 0
+0.000000 +0.000000 0
+0.000000 +0.000000 0
+0.000000 +0.000000 0
+0.000000 +0.000000 0
+0.000000 +0.000000 0
+0.000000 +0.000000 0
+0.000000 +0.000000 0
+0.000000 +0.000000 0
+0.000000 +0.000000 0
+0.000000 +0.000000 0
+0.000000 +0.000000 0
+0.000000 +0.000000 0
+0.000000 +0.000000 0
+0.000000 +0.000000 0
+0.000000 +0.000000 0
+0.000000 +0.000000 0
+0.000000 +0.000000 0
+0.000000 +0.000000 0
+0.000000 +0.000000 0
+0.000000 +0.000000 0
+0.000000 +0.000000 0
+0.000000 +0.000000 0
+0.000000 +0.000000 0
+0.000000 +0.000000 0
+0.000000 +0.000000 0
+0.000000 +0.000000 0
+0.000000 +0.000000 0
+0.000000 +0.000000 0
+0.000000 +0.000000 0
+0.000000 +0.000000 0
+0.000000 +0.000000 0
+0.000000 +0.000000 0
+0.000000 +0.000000 0
+0.000000 +0.000000 0
+0.000000 +0.000000 0
+0.000000 +0.000000 0
+0.000000 +0.000000 0
+0.000000 +0.000000 0
+0.000000 +0.000000 0
+0.000000 +0.000000 0
+0.000000 +0.000000 0
+0.000000 +0.000000 0
+0.000000 +0.000000 0
+0.000000 +0.000000 0
+0.000000 +0.000000 0
+0.000000 +0.000000 0
+0.000000 +0.000000 0
+0.000000 +0.000000 0
+0.000000 +0.000000 0
+0.000000 +0.000000 0
+0.000000 +0.000000 0
+0.000000 +0.000000 0
+0.000000 +0.000000 0
+0.000000 +0.000000 0
+0.000000 +0.000000 0
+0.000000 +0.000000 0
+0.000000 +0.000000 0
+0.000000 +0.000000 0
+0.000000 +0.000000 0
+0.000000 +0.000000 0
+0.000000 +0.000000 0
+0.000000 +0.000000 0
+0.000000 +0.000000 0
+0.000000 +0.000000 0
+0.000000 +0.000000 0
+0.000000 +0.000000 0
+0.000000 +0.000000 0
+0.000000 +0.000000 0
+0.000000 +0.000000 0
+0.000000 +0.000000 0
+0.000000 +0.000000 0
+0.000000 +0.000000 0
+0.000000 +0.000000 0
+0.000000 +0.000000 0
+0.000000 +0.000000 0
+0.000000 +0.000000 0
+0.000000 +0.000000 0
+0.000000 +0.000000 0
+0.000000 +0.000000 0
+0.000000 +0.000000 0
+0.000000 +0.000000 0
+0.000000 +0.000000 0
+0.000000 +0.000000 0
+0.000000 +0.000000 0
+0.000000 +0.000000 0
+0.000000 +0.000000 0
+0.000000 +0.000000 0
+0.000000 +0.000000 0
+0.000000 +0.000000 0
+0.000000 +0.000000 0
+0.000000 +0.000000 0
+0.000000 +0.000000 0
+0.000000 +0.000000 0
+0.000000 +0.000000 0
+0.000000 +0.000000 0
+0.000000 +0.000000 0
+0.000000 +0.000000 0
+0.000000 +0.000000 0
+0.000000 +0.000000 0
+0.000000 +0.000000 0
+0.000000 +0.000000 0
+0.000000 +0.000000 0
+0.000000 +0.000000 0
+0.000000 +0.000000 0
+0.000000 +0.000000 0
+0.000000 +0.000000 0
+0.000000 +0.000000 0
+0.000000 +0.000000 0
+0.000000 +0.000000 0
+0.000000 +0.000000 0
+0.000000 +0.000000 0
+0.000000 +0.000000 0
+0.000000 +0.000000 0
+0.000000 +0.000000 0
+0.000000 +0.000000 0
+0.000000 +0.000000 0
+0.000000 +0.000000 0
+0.000000 +0.000000 0
+0.000000 +0.000000 0
+0.000000 +0.000000 0
+0.000000 +0.000000 0
+0.000000 +0.000000 0
+0.000000 +0.000000 0
+0.000000 +0.000000 0
+0.000000 +0.000000 0
+0.000000 +0.000000 0
+0.000000 +0.000000 0
+0.000000 +0.000000 0
+0.000000 +0.000000 0
+0.000000 +0.000000 0
+0.000000 +0.000000 0
+0.000000 +0.000000 0
+0.000000 +0.000000 0
+0.000000 +0.000000 0
+0.000000 +0.000000 0
+0.000000 +0.000000 0
+0.000000 +0.000000 0
+0.000000 +0.000000 0
+0.000000 +0.000000 0
+0.000000 +0.000000 0
+0.000000 +0.000000 0
+0.000000 +0.000000 0
+0.000000 +0.000000 0
+0.000000 +0.000000 0
+0.000000 +0.000000 0
+0.000000 +0.000000 0
+0.000000 +0.000000 0
+0.000000 +0.000000 0
+0.000000 +0.000000 0
+0.000000 +0.000000 0
+0.000000 +0.000000 0
+0.000000 +0.000000 0
+0.000000 +0.000000 0
+0.000000 +0.000000 0
+0.000000 +0.000000 0
+0.000000 +0.000000 0
+0.000000 +0.000000 0
+0.000000 +0.000000 0
+0.000000 +0.000000 0
+0.000000 +0.000000 0
+0.000000 +0.000000 0
+0.000000 +0.000000 0
+0.000000 +0.000000 0
+0.000000 +0.000000 0
+0.000000 +0.000000 0
+0.000000 +0.000000 0
+0.000000 +0.000000 0
+0.000000 +0.000000 0
+0.000000 +0.000000 0
+0.000000 +0.000000 0
+0.000000 +0.000000 0
+0.000000 +0.000000 0
+0.000000 +0.000000 0
+0.000000 +0.000000 0
+0.000000 +0.000000 0
+0.000000 +0.000000 0
+0.000000 +0.000000 0
+0.000000 +0.000000 0
+0.000000 +0.000000 0
+0.000000 +0.000000 0
+0.000000 +0.000000 0
+0.000000 +0.000000 0
+0.000000 +0.000000 0
+0.000000 +0.000000 0
+0.000000 +0.000000 0
+0.000000 +0.000000 0
+0.000000 +0.000000 0
+0.000000 +0.000000 0
+0.000000 +0.000000 0
+0.000000 +0.000000 0
+0.000000 +0.000000 0
+0.000000 +0.000000 0
+0.000000 +0.000000 0
+0.000000 +0.000000 0
+0.000000 +0.000000 0
+0.000000 +0.000000 0
+0.000000 +0.000000 0
+0.000000 +0.000000 0
+0.000000 +0.000000 0
+0.000000 +0.000000 0
+0.000000 +0.000000 0
+0.000000 +0.000000 0
+0.000000 +0.000000 0
+0.000000 +0.000000 0
+0.000000 +0.000000 0
+0.000000 +0.000000 0
+0.000000 +0.000000 0
+0.000000 +0.000000 0
+0.000000 +0.000000 0
+0.000000 +0.000000 0
+0.000000 +0.000000 0
+0.000000 +0.000000 0
+0.000000 +0.000000 0
+0.000000 +0.000000 0
+0.000000 +0.000000 0
+0.000000 +0.000000 0
+0.000000 +0.000000 0
+0.000000 +0.000000 0
+0.000000 +0.000000 0
+0.000000 +0.000000 0
+0.000000 +0.000000 0
+0.000000 +0.000000 0
+0.000000 +0.000000 0
+0.000000 +0.000000 0
+0.000000 +0.000000 0
+0.000000 +0.000000 0
+0.000000 +0.000000 0
+0.000000 +0.000000 0
+0.000000 +0.000000 0
+0.000000 +0.000000 0
+0.000000 +0.000000 0
+0.000000 +0.000000 0
+0.000000 +0.000000 0
+0.000000 +0.000000 0
+0.000000 +0.000000 0
+0.000000 +0.000000 0
+0.000000 +0.000000 0
+0.000000 +0.000000 0
+0.000000 +0.000000 0
+0.000000 +0.000000 0
+0.000000 +0.000000 0
+0.000000 +0.000000 0
+0.000000 +0.000000 0
+0.000000 +0.000000 0
+0.000000 +0.000000 0
+0.000000 +0.000000 0
+0.000000 +0.000000 0
+0.000000 +0.000000 0
+0.000000 +0.000000 0
+0.000000 +0.000000 0
+0.000000 +0.000000 0
+0.000000 +0.000000 0
+0.000000 +0.000000 0
+0.000000 +0.000000 0
+0.000000 +0.000000 0
+0.000000 +0.000000 0
+0.000000 +0.000000 0
+0.000000 +0.000000 0
+0.000000 +0.000000 0
+0.000000 +0.000000 0
+0.000000 +0.000000 0
+0.000000 +0.000000 0
+0.000000 +0.000000 0
+0.000000 +0.000000 0
+0.000000 +0.000000 0
+0.000000 +0.000000 0
+0.000000 +0.000000 0
+0.000000 +0.000000 0
+0.000000 +0.000000 0
+0.000000 +0.000000 0
+0.000000 +0.000000 0
+0.000000 +0.000000 0
+0.000000 +0.000000 0
+0.000000 +0.000000 0
+0.000000 +0.000000 0
+0.000000 +0.000000 0
+0.000000 +0.000000 0
+0.000000 +0.000000 0
+0.000000 +0.000000 0
+0.000000 +0.000000 0
+0.000000 +0.000000 0
+0.000000 +0.000000 0
+0.000000 +0.000000 0
+0.000000 +0.000000 0
+0.000000 +0.000000 0
+0.000000 +0.000000 0
+0.000000 +0.000000 0
+0.000000 +0.000000 0
+0.000000 +0.000000 0
+0.000000 +0.000000 0
+0.000000 +0.000000 0
+0.000000 +0.000000 0
+0.000000 +0.000000 0
+0.000000 +0.000000 0
+0.000000 +0.000000 0
+0.000000 +0.000000 0
+0.000000 +0.000000 0
+0.000000 +0.000000 0
+0.000000 +0.000000 0
+0.000000 +0.000000 0
+0.000000 +0.000000 0
+0.000000 +0.000000 0
+0.000000 +0.000000 0
+0.000000 +0.000000 0
+0.000000 +0.000000 0
+0.000000 +0.000000 0
+0.000000 +0.000000 0
+0.000000 +0.000000 0
+0.000000 +0.000000 0
+0.000000 +0.000000 0
+0.000000 +0.000000 0
+0.000000 +0.000000 0
+0.000000 +0.000000 0
+0.000000 +0.000000 0
+0.000000 +0.000000 0
+0.000000 +0.000000 0
+0.000000 +0.000000 0
+0.000000 +0.000000 0
+0.000000 +0.000000 0
+0.000000 +0.000000 0
+0.000000 +0.000000 0
+0.000000 +0.000000 0
+0.000000 +0.000000 0
+0.000000 +0.000000 0
+0.000000 +0.000000 0
+0.000000 +0.000000 0
+0.000000 +0.000000 0
+0.000000 +0.000000 0
+0.000000 +0.000000 0
+0.000000 +0.000000 0
+0.000000 +0.000000 0
+0.000000 +0.000000 0
+0.000000 +0.000000 0
+0.000000 +0.000000 0
+0.000000 +0.000000 0
+0.000000 +0.000000 0
+0.000000 +0.000000 0
+0.000000 +0.000000 0
+0.000000 +0.000000 0
+0.000000 +0.000000 0
+0.000000 +0.000000 0
+0.000000 +0.000000 0
+0.000000 +0.000000 0
+0.000000 +0.000000 0
+0.000000 +0.000000 0
+0.000000 +0.000000 0
+0.000000 +0.000000 0
+0.000000 +0.000000 0
+0.000000 +0.000000 0
+0.000000 +0.000000 0
+0.000000 +0.000000 0
+0.000000 +0.000000 0
+0.000000 +0.000000 0
+0.000000 +0.000000 0
+0.000000 +0.000000 0
+0.000000 +0.000000 0
+0.000000 +0.000000 0
+0.000000 +0.000000 0
+0.000000 +0.000000 0
+0.000000 +0.000000 0
+0.000000 +0.000000 0
+0.000000 +0.000000 0
+0.000000 +0.000000 0
+0.000000 +0.000000 0
+0.000000 +0.000000 0
+0.000000 +0.000000 0
+0.000000 +0.000000 0
+0.000000 +0.000000 0
+0.000000 +0.000000 0
+0.000000 +0.000000 0
+0.000000 +0.000000 0
+0.000000 +0.000000 0
+0.000000 +0.000000 0
+0.000000 +0.000000 0
+0.000000 +0.000000 0
+0.000000 +0.000000 0
+0.000000 +0.000000 0
+0.000000 +0.000000 0
+0.000000 +0.000000 0
+0.000000 +0.000000 0
+0.000000 +0.000000 0
+0.000000 +0.000000 0
+0.000000 +0.000000 0
+0.000000 +0.000000 0
+0.000000 +0.000000 0
+0.000000 +0.000000 0
+0.000000 +0.000000 0
+0.000000 +0.000000 0
+0.000000 +0.000000 0
+0.000000 +0.000000 0
+0.000000 +0.000000 0
+0.000000 +0.000000 0
+0.000000 +0.000000 0
+0.000000 +0.000000 0
+0.000000 +0.000000 0
+0.000000 +0.000000 0
+0.000000 +0.000000 0
+0.000000 +0.000000 0
+0.000000 +0.000000 0
+0.000000 +0.000000 0
+0.000000 +0.000000 0
+0.000000 +0.000000 0
+0.000000 +0.000000 0
+0.000000 +0.000000 0
+0.000000 +0.000000 0
+0.000000 +0.000000 0
+0.000000 +0.000000 0
+0.000000 +0.000000 0
+0.000000 +0.000000 0
+0.000000 +0.000000 0
+0.000000 +0.000000 0
+0.000000 +0.000000 0
+0.000000 +0.000000 0
+0.000000 +0.000000 0
+0.000000 +0.000000 0
+0.000000 +0.000000 0
+0.000000 +0.000000 0
+0.000000 +0.000000 0
+0.000000 +0.000000 0
+0.000000 +0.000000 0
+0.000000 +0.000000 0
+0.000000 +0.000000 0
+0.000000 +0.000000 0
+0.000000 +0.000000 0
+0.000000 +0.000000 0
+0.000000 +0.000000 0
+0.000000 +0.000000 0
+0.000000 +0.000000 0
+0.000000 +0.000000 0
+0.000000 +0.000000 0
+0.000000 +0.000000 0
+0.000000 +0.000000 0
+0.000000 +0.000000 0
+0.000000 +0.000000 0
+0.000000 +0.000000 0
+0.000000 +0.000000 0
+0.000000 +0.000000 0
+0.000000 +0.000000 0
+0.000000 +0.000000 0
+0.000000 +0.000000 0
+0.000000 +0.000000 0
+0.000000 +0.000000 0
+0.000000 +0.000000 0
+0.000000 +0.000000 0
+0.000000 +0.000000 0
+0.000000 +0.000000 0
+0.000000 +0.000000 0
+0.000000 +0.000000 0
+0.000000 +0.000000 0
+0.000000 +0.000000 0
+0.000000 +0.000000 0
+0.000000 +0.000000 0
+0.000000 +0.000000 0
+0.000000 +0.000000 0
+0.000000 +0.000000 0
+0.000000 +0.000000 0
+0.000000 +0.000000 0
+0.000000 +0.000000 0
+0.000000 +0.000000 0
+0.000000 +0.000000 0
+0.000000 +0.000000 0
+0.000000 +0.000000 0
+0.000000 +0.000000 0
+0.000000 +0.000000 0
+0.000000 +0.000000 0
+0.000000 +0.000000 0
+0.000000 +0.000000 0
+0.000000 +0.000000 0
+0.000000 +0.000000 0
+0.000000 +0.000000 0
+0.000000 +0.000000 0
+0.000000 +0.000000 0
+0.000000 +0.000000 0
+0.000000 +0.000000 0
+0.000000 +0.000000 0
+0.000000 +0.000000 0
+0.000000 +0.000000 0
+0.000000 +0.000000 0
+0.000000 +0.000000 0
+0.000000 +0.000000 0
+0.000000 +0.000000 0
+0.000000 +0.000000 0
+0.000000 +0.000000 0
+0.000000 +0.000000 0
+0.000000 +0.000000 0
+0.000000 +0.000000 0
+0.000000 +0.000000 0
+0.000000 +0.000000 0
+0.000000 +0.000000 0
+0.000000 +0.000000 0
+0.000000 +0.000000 0
+0.000000 +0.000000 0
+0.000000 +0.000000 0
+0.000000 +0.000000 0
+0.000000 +0.000000 0
+0.000000 +0.000000 0
+0.000000 +0.000000 0
+0.000000 +0.000000 0
+0.000000 +0.000000 0
+0.000000 +0.000000 0
+0.000000 +0.000000 0
+0.000000 +0.000000 0
+0.000000 +0.000000 0
+0.000000 +0.000000 0
+0.000000 +0.000000 0
+0.000000 +0.000000 0
+0.000000 +0.000000 0
+0.000000 +0.000000 0
+0.000000 +0.000000 0
+0.000000 +0.000000 0
+0.000000 +0.000000 0
+0.000000 +0.000000 0
+0.000000 +0.000000 0
+0.000000 +0.000000 0
+0.000000 +0.000000 0
+0.000000 +0.000000 0
+0.000000 +0.000000 0
+0.000000 +0.000000 0
+0.000000 +0.000000 0
+0.000000 +0.000000 0
+0.000000 +0.000000 0
+0.000000 +0.000000 0
+0.000000 +0.000000 0
+0.000000 +0.000000 0
+0.000000 +0.000000 0
+0.000000 +0.000000 0
+0.000000 +0.000000 0
+0.000000 +0.000000 0
+0.000000 +0.000000 0
+0.000000 +0.000000 0
+0.000000 +0.000000 0
+0.000000 +0.000000 0
+0.000000 +0.000000 0
+0.000000 +0.000000 0
+0.000000 +0.000000 0
+0.000000 +0.000000 0
+0.000000 +0.000000 0
+0.000000 +0.000000 0
+0.000000 +0.000000 0
+0.000000 +0.000000 0
+0.000000 +0.000000 0
+0.000000 +0.000000 0
+0.000000 +0.000000 0
+0.000000 +0.000000 0
+0.000000 +0.000000 0
+0.000000 +0.000000 0
+0.000000 +0.000000 0
+0.000000 +0.000000 0
+0.000000 +0.000000 0
+0.000000 +0.000000 0
+0.000000 +0.000000 0
+0.000000 +0.000000 0
+0.000000 +0.000000 0
+0.000000 +0.000000 0
+0.000000 +0.000000 0
+0.000000 +0.000000 0
+0.000000 +0.000000 0
+0.000000 +0.000000 0
+0.000000 +0.000000 0
+0.000000 +0.000000 0
+0.000000 +0.000000 0
+0.000000 +0.000000 0
+0.000000 +0.000000 0
+0.000000 +0.000000 0
+0.000000 +0.000000 0
+0.000000 +0.000000 0
+0.000000 +0.000000 0
+0.000000 +0.000000 0
+0.000000 +0.000000 0
+0.000000 +0.000000 0
+0.000000 +0.000000 0
+0.000000 +0.000000 0
+0.000000 +0.000000 0
+0.000000 +0.000000 0
+0.000000 +0.000000 0
+0.000000 +0.000000 0
+0.000000 +0.000000 0
+0.000000 +0.000000 0
+0.000000 +0.000000 0
+0.000000 +0.000000 0
+0.000000 +0.000000 0
+0.000000 +0.000000 0
+0.000000 +0.000000 0
+0.000000 +0.000000 0
+0.000000 +0.000000 0
+0.000000 +0.000000 0
+0.000000 +0.000000 0
+0.000000 +0.000000 0
+0.000000 +0.000000 0
+0.000000 +0.000000 0
+0.000000 +0.000000 0
+0.000000 +0.000000 0
+0.000000 +0.000000 0
+0.000000 +0.000000 0
+0.000000 +0.000000 0
+0.000000 +0.000000 0
+0.000000 +0.000000 0
+0.000000 +0.000000 0
+0.000000 +0.000000 0
+0.000000 +0.000000 0
+0.000000 +0.000000 0
+0.000000 +0.000000 0
+0.000000 +0.000000 0
+0.000000 +0.000000 0
+0.000000 +0.000000 0
+0.000000 +0.000000 0
+0.000000 +0.000000 0
+0.000000 +0.000000 0
+0.000000 +0.000000 0
+0.000000 +0.000000 0
+0.000000 +0.000000 0
+0.000000 +0.000000 0
+0.000000 +0.000000 0
+0.000000 +0.000000 0
+0.000000 +0.000000 0
+0.000000 +0.000000 0
+0.000000 +0.000000 0
+0.000000 +0.000000 0
+0.000000 +0.000000 0
+0.000000 +0.000000 0
+0.000000 +0.000000 0
+0.000000 +0.000000 0
+0.000000 +0.000000 0
+0.000000 +0.000000 0
+0.000000 +0.000000 0
+0.000000 +0.000000 0
+0.000000 +0.000000 0
+0.000000 +0.000000 0
+0.000000 +0.000000 0