# vtk DataFile Version 2.0
MyTitle
ASCII
DATASET UNSTRUCTURED_GRID
POINTS 1311 double
-10.000000 0.000000 0.000000
-6.000000 0.000000 0.000000
-4.000000 0.000000 0.000000
0.000000 0.000000 0.000000
4.000000 0.000000 0.000000
6.000000 0.000000 0.000000
10.000000 0.000000 0.000000
-10.000000 5.000000 0.000000
-5.000000 5.000000 0.000000
5.000000 5.000000 0.000000
0.000000 5.000000 0.000000
10.000000 5.000000 0.000000
-5.000000 1.000000 0.000000
5.000000 1.000000 0.000000
-5.707000 0.707000 0.000000
-4.293000 0.707000 0.000000
4.293000 0.707000 0.000000
5.707000 0.707000 0.000000
0.400000 0.000000 0.000000
0.800000 0.000000 0.000000
1.200000 0.000000 0.000000
1.600000 0.000000 0.000000
2.000000 0.000000 0.000000
2.400000 0.000000 0.000000
2.800000 0.000000 0.000000
3.200000 0.000000 0.000000
3.600000 0.000000 0.000000
0.200000 0.000000 0.000000
0.600000 0.000000 0.000000
1.000000 0.000000 0.000000
1.400000 0.000000 0.000000
1.800000 0.000000 0.000000
2.200000 0.000000 0.000000
2.600000 0.000000 0.000000
3.000000 0.000000 0.000000
3.400000 0.000000 0.000000
3.800000 0.000000 0.000000
6.400000 0.000000 0.000000
6.800000 0.000000 0.000000
7.200000 0.000000 0.000000
7.600000 0.000000 0.000000
8.000000 0.000000 0.000000
8.400000 0.000000 0.000000
8.800000 0.000000 0.000000
9.200000 0.000000 0.000000
9.600000 0.000000 0.000000
6.200000 0.000000 0.000000
6.600000 0.000000 0.000000
7.000000 0.000000 0.000000
7.400000 0.000000 0.000000
7.800000 0.000000 0.000000
8.200000 0.000000 0.000000
8.600000 0.000000 0.000000
9.000000 0.000000 0.000000
9.400000 0.000000 0.000000
9.800000 0.000000 0.000000
10.000000 1.000000 0.000000
10.000000 2.000000 0.000000
10.000000 3.000000 0.000000
10.000000 4.000000 0.000000
10.000000 0.500000 0.000000
10.000000 1.500000 0.000000
10.000000 2.500000 0.000000
10.000000 3.500000 0.000000
10.000000 4.500000 0.000000
9.000000 5.000000 0.000000
8.000000 5.000000 0.000000
7.000000 5.000000 0.000000
6.000000 5.000000 0.000000
9.500000 5.000000 0.000000
8.500000 5.000000 0.000000
7.500000 5.000000 0.000000
6.500000 5.000000 0.000000
5.500000 5.000000 0.000000
5.000000 4.600000 0.000000
5.000000 4.200000 0.000000
5.000000 3.800000 0.000000
5.000000 3.400000 0.000000
5.000000 3.000000 0.000000
5.000000 2.600000 0.000000
5.000000 2.200000 0.000000
5.000000 1.800000 0.000000
5.000000 1.400000 0.000000
5.000000 4.800000 0.000000
5.000000 4.400000 0.000000
5.000000 4.000000 0.000000
5.000000 3.600000 0.000000
5.000000 3.200000 0.000000
5.000000 2.800000 0.000000
5.000000 2.400000 0.000000
5.000000 2.000000 0.000000
5.000000 1.600000 0.000000
5.000000 1.200000 0.000000
4.000000 5.000000 0.000000
3.000000 5.000000 0.000000
2.000000 5.000000 0.000000
1.000000 5.000000 0.000000
4.500000 5.000000 0.000000
3.500000 5.000000 0.000000
2.500000 5.000000 0.000000
1.500000 5.000000 0.000000
0.500000 5.000000 0.000000
0.000000 4.000000 0.000000
0.000000 3.000000 0.000000
0.000000 2.000000 0.000000
0.000000 1.000000 0.000000
0.000000 4.500000 0.000000
0.000000 3.500000 0.000000
0.000000 2.500000 0.000000
0.000000 1.500000 0.000000
0.000000 0.500000 0.000000
-1.000000 5.000000 0.000000
-2.000000 5.000000 0.000000
-3.000000 5.000000 0.000000
-4.000000 5.000000 0.000000
-0.500000 5.000000 0.000000
-1.500000 5.000000 0.000000
-2.500000 5.000000 0.000000
-3.500000 5.000000 0.000000
-4.500000 5.000000 0.000000
-5.000000 4.600000 0.000000
-5.000000 4.200000 0.000000
-5.000000 3.800000 0.000000
-5.000000 3.400000 0.000000
-5.000000 3.000000 0.000000
-5.000000 2.600000 0.000000
-5.000000 2.200000 0.000000
-5.000000 1.800000 0.000000
-5.000000 1.400000 0.000000
-5.000000 4.800000 0.000000
-5.000000 4.400000 0.000000
-5.000000 4.000000 0.000000
-5.000000 3.600000 0.000000
-5.000000 3.200000 0.000000
-5.000000 2.800000 0.000000
-5.000000 2.400000 0.000000
-5.000000 2.000000 0.000000
-5.000000 1.600000 0.000000
-5.000000 1.200000 0.000000
-6.000000 5.000000 0.000000
-7.000000 5.000000 0.000000
-8.000000 5.000000 0.000000
-9.000000 5.000000 0.000000
-5.500000 5.000000 0.000000
-6.500000 5.000000 0.000000
-7.500000 5.000000 0.000000
-8.500000 5.000000 0.000000
-9.500000 5.000000 0.000000
-10.000000 4.000000 0.000000
-10.000000 3.000000 0.000000
-10.000000 2.000000 0.000000
-10.000000 1.000000 0.000000
-10.000000 4.500000 0.000000
-10.000000 3.500000 0.000000
-10.000000 2.500000 0.000000
-10.000000 1.500000 0.000000
-10.000000 0.500000 0.000000
-9.600000 0.000000 0.000000
-9.200000 0.000000 0.000000
-8.800000 0.000000 0.000000
-8.400000 0.000000 0.000000
-8.000000 0.000000 0.000000
-7.600000 0.000000 0.000000
-7.200000 0.000000 0.000000
-6.800000 0.000000 0.000000
-6.400000 0.000000 0.000000
-9.800000 0.000000 0.000000
-9.400000 0.000000 0.000000
-9.000000 0.000000 0.000000
-8.600000 0.000000 0.000000
-8.200000 0.000000 0.000000
-7.800000 0.000000 0.000000
-7.400000 0.000000 0.000000
-7.000000 0.000000 0.000000
-6.600000 0.000000 0.000000
-6.200000 0.000000 0.000000
-3.600000 0.000000 0.000000
-3.200000 0.000000 0.000000
-2.800000 0.000000 0.000000
-2.400000 0.000000 0.000000
-2.000000 0.000000 0.000000
-1.600000 0.000000 0.000000
-1.200000 0.000000 0.000000
-0.800000 0.000000 0.000000
-0.400000 0.000000 0.000000
-3.800000 0.000000 0.000000
-3.400000 0.000000 0.000000
-3.000000 0.000000 0.000000
-2.600000 0.000000 0.000000
-2.200000 0.000000 0.000000
-1.800000 0.000000 0.000000
-1.400000 0.000000 0.000000
-1.000000 0.000000 0.000000
-0.600000 0.000000 0.000000
-0.200000 0.000000 0.000000
-5.987688 0.156434 0.000000
-5.951057 0.309017 0.000000
-5.891007 0.453990 0.000000
-5.809017 0.587785 0.000000
-5.996917 0.078459 0.000000
-5.972370 0.233445 0.000000
-5.923880 0.382683 0.000000
-5.852640 0.522499 0.000000
-5.760406 0.649448 0.000000
-5.587696 0.808895 0.000000
-5.453922 0.890872 0.000000
-5.308970 0.950913 0.000000
-5.156411 0.987539 0.000000
-5.649350 0.760291 0.000000
-5.522420 0.852511 0.000000
-5.382626 0.923740 0.000000
-5.233410 0.972223 0.000000
-5.078447 0.996767 0.000000
-4.843566 0.987688 0.000000
-4.690983 0.951057 0.000000
-4.546010 0.891007 0.000000
-4.412215 0.809017 0.000000
-4.921541 0.996917 0.000000
-4.766555 0.972370 0.000000
-4.617317 0.923880 0.000000
-4.477501 0.852640 0.000000
-4.350552 0.760406 0.000000
-4.191105 0.587696 0.000000
-4.109128 0.453922 0.000000
-4.049087 0.308970 0.000000
-4.012461 0.156411 0.000000
-4.239709 0.649350 0.000000
-4.147489 0.522420 0.000000
-4.076260 0.382626 0.000000
-4.027777 0.233410 0.000000
-4.003233 0.078447 0.000000
4.012312 0.156434 0.000000
4.048943 0.309017 0.000000
4.108993 0.453990 0.000000
4.190983 0.587785 0.000000
4.003083 0.078459 0.000000
4.027630 0.233445 0.000000
4.076120 0.382683 0.000000
4.147360 0.522499 0.000000
4.239594 0.649448 0.000000
4.412304 0.808895 0.000000
4.546078 0.890872 0.000000
4.691030 0.950913 0.000000
4.843589 0.987539 0.000000
4.350650 0.760291 0.000000
4.477580 0.852511 0.000000
4.617374 0.923740 0.000000
4.766590 0.972223 0.000000
4.921553 0.996767 0.000000
5.156434 0.987688 0.000000
5.309017 0.951057 0.000000
5.453990 0.891007 0.000000
5.587785 0.809017 0.000000
5.078459 0.996917 0.000000
5.233445 0.972370 0.000000
5.382683 0.923880 0.000000
5.522499 0.852640 0.000000
5.649448 0.760406 0.000000
5.808895 0.587696 0.000000
5.890872 0.453922 0.000000
5.950913 0.308970 0.000000
5.987539 0.156411 0.000000
5.760291 0.649350 0.000000
5.852511 0.522420 0.000000
5.923740 0.382626 0.000000
5.972223 0.233410 0.000000
5.996767 0.078447 0.000000
-6.136300 1.136300 0.000000
-6.565600 1.565600 0.000000
-6.994900 1.994900 0.000000
-7.424200 2.424200 0.000000
-7.853500 2.853500 0.000000
-8.282800 3.282800 0.000000
-8.712100 3.712100 0.000000
-9.141400 4.141400 0.000000
-9.570700 4.570700 0.000000
-5.921650 0.921650 0.000000
-6.350950 1.350950 0.000000
-6.780250 1.780250 0.000000
-7.209550 2.209550 0.000000
-7.638850 2.638850 0.000000
-8.068150 3.068150 0.000000
-8.497450 3.497450 0.000000
-8.926750 3.926750 0.000000
-9.356050 4.356050 0.000000
-9.785350 4.785350 0.000000
-3.863700 1.136300 0.000000
-3.434400 1.565600 0.000000
-3.005100 1.994900 0.000000
-2.575800 2.424200 0.000000
-2.146500 2.853500 0.000000
-1.717200 3.282800 0.000000
-1.287900 3.712100 0.000000
-0.858600 4.141400 0.000000
-0.429300 4.570700 0.000000
-4.078350 0.921650 0.000000
-3.649050 1.350950 0.000000
-3.219750 1.780250 0.000000
-2.790450 2.209550 0.000000
-2.361150 2.638850 0.000000
-1.931850 3.068150 0.000000
-1.502550 3.497450 0.000000
-1.073250 3.926750 0.000000
-0.643950 4.356050 0.000000
-0.214650 4.785350 0.000000
3.863700 1.136300 0.000000
3.434400 1.565600 0.000000
3.005100 1.994900 0.000000
2.575800 2.424200 0.000000
2.146500 2.853500 0.000000
1.717200 3.282800 0.000000
1.287900 3.712100 0.000000
0.858600 4.141400 0.000000
0.429300 4.570700 0.000000
4.078350 0.921650 0.000000
3.649050 1.350950 0.000000
3.219750 1.780250 0.000000
2.790450 2.209550 0.000000
2.361150 2.638850 0.000000
1.931850 3.068150 0.000000
1.502550 3.497450 0.000000
1.073250 3.926750 0.000000
0.643950 4.356050 0.000000
0.214650 4.785350 0.000000
6.136300 1.136300 0.000000
6.565600 1.565600 0.000000
6.994900 1.994900 0.000000
7.424200 2.424200 0.000000
7.853500 2.853500 0.000000
8.282800 3.282800 0.000000
8.712100 3.712100 0.000000
9.141400 4.141400 0.000000
9.570700 4.570700 0.000000
5.921650 0.921650 0.000000
6.350950 1.350950 0.000000
6.780250 1.780250 0.000000
7.209550 2.209550 0.000000
7.638850 2.638850 0.000000
8.068150 3.068150 0.000000
8.497450 3.497450 0.000000
8.926750 3.926750 0.000000
9.356050 4.356050 0.000000
9.785350 4.785350 0.000000
-9.580902 3.658779 0.000000
-9.161803 3.317557 0.000000
-8.742705 2.976336 0.000000
-8.323607 2.635114 0.000000
-7.904508 2.293893 0.000000
-7.485410 1.952671 0.000000
-7.066312 1.611450 0.000000
-6.647214 1.270228 0.000000
-6.228115 0.929007 0.000000
-9.589101 2.745399 0.000000
-9.178201 2.490798 0.000000
-8.767302 2.236197 0.000000
-8.356403 1.981596 0.000000
-7.945503 1.726995 0.000000
-7.534604 1.472394 0.000000
-7.123705 1.217793 0.000000
[...]
POINT_DATA 1311
VECTORS sol double
-0.480000 -0.053333 0
-12.000000 -0.099174 0
+12.000000 -0.148148 0
+0.480000 -0.480000 0
+0.148148 -12.000000 0
+0.099174 +12.000000 0
+0.053333 +0.480000 0
-65959.499745 +1503.838553 0
+53964.822567 -766.632057 0
+0.055000 +1.413146 0
-1.312418 +0.106684 0
+0.382498 -7102.072521 0
-12.000000 -0.130044 0
+0.095924 +11.550647 0
-16.975689 -0.110862 0
-0.000000 -0.148236 0
-0.558800 +0.036435 0
+0.708548 +78.331985 0
+0.411523 -0.567108 0
+0.356718 -0.680272 0
+0.312175 -0.831025 0
+0.275482 -1.038062 0
+0.244898 -1.333333 0
+0.219138 -1.775148 0
+0.197239 -2.479339 0
+0.178465 -3.703704 0
+0.162250 -6.122449 0
+0.443787 -0.520833 0
+0.382653 -0.619835 0
+0.333333 -0.750000 0
+0.292969 -0.925926 0
+0.259516 -1.171875 0
+0.231481 -1.530612 0
+0.207756 -2.083333 0
+0.187500 -3.000000 0
+0.170068 -4.687500 0
+0.154959 -8.333333 0
+0.092336 +6.122449 0
+0.086182 +3.703704 0
+0.080623 +2.479339 0
+0.075586 +1.775148 0
+0.071006 +1.333333 0
+0.066830 +1.038062 0
+0.063012 +0.831025 0
+0.059512 +0.680272 0
+0.056296 +0.567108 0
+0.095663 +8.333333 0
+0.089180 +4.687500 0
+0.083333 +3.000000 0
+0.078044 +2.083333 0
+0.073242 +1.530612 0
+0.068871 +1.171875 0
+0.064879 +0.925926 0
+0.061224 +0.750000 0
+0.057870 +0.619835 0
+0.054785 +0.520833 0
+0.484194 +5.640655 0
+0.791422 +16.886600 0
+0.858866 -199.091531 0
+1.032515 -1753.294578 0
+0.278053 +2.375582 0
+0.659286 +13.028472 0
+0.859590 -19.894176 0
+0.872014 -710.325637 0
+1.153198 -3736.679642 0
+1.032513 -1753.294806 0
+0.858864 -199.090448 0
+0.791440 +16.900632 0
+0.484183 +5.717795 0
+1.153200 -3736.678735 0
+0.872011 -710.325939 0
+0.859601 -19.888440 0
+0.659250 +13.048527 0
+0.278202 +2.660578 0
+0.056068 +1.149967 0
+0.059001 +0.501219 0
+0.063182 -0.050258 0
+0.067459 +0.143529 0
+0.071265 +1.536649 0
+0.075050 +3.100961 0
+0.079999 +3.034902 0
+0.086777 +2.257771 0
+0.093292 +5.940222 0
+0.054965 +1.204430 0
+0.057288 +0.834100 0
+0.060895 +0.108549 0
+0.065202 -0.035555 0
+0.069429 +0.810082 0
+0.073117 +2.353783 0
+0.077329 +3.250061 0
+0.083230 +2.484050 0
+0.090266 +3.387446 0
+0.095279 +9.415089 0
-0.391405 +0.661165 0
-0.766912 +0.455459 0
-1.034344 +0.267030 0
-1.130854 +0.145728 0
-0.172165 +0.875479 0
-0.591602 +0.547525 0
-0.913869 +0.356753 0
-1.113705 +0.196719 0
-1.185600 +0.115525 0
-2.349221 +0.128444 0
-176.312076 +4.140869 0
-1598.166286 +40.048710 0
-4068.707766 +113.125029 0
-1.516395 +0.102884 0
-0.824097 -0.015563 0
+198.460093 -5.104663 0
+1836.987159 -46.250784 0
+1193.890099 -41.653763 0
-0.920975 +0.059827 0
+5.242507 -0.147346 0
+185.431798 -2.944355 0
+3518.185846 -51.405167 0
-1.112310 +0.093435 0
-0.969571 +0.010594 0
+7.780529 -0.266023 0
-3.051407 -0.113872 0
-2139.015206 +35.119064 0
-47409.561064 +709.175384 0
+19910.602766 -359.969456 0
+20746.377604 -264.476335 0
-42520.329733 +668.903996 0
+36115.776530 -622.775760 0
-18023.735785 +335.778700 0
+4208.272590 -93.008676 0
-3300.028533 +115.176205 0
+1730.542047 -80.894823 0
+3217.093924 -25.122266 0
-15258.802018 +193.862075 0
+23626.458412 -362.926830 0
-13588.462424 +253.319415 0
-3790.801835 +22.760709 0
+13293.905820 -212.716207 0
-14504.694166 +263.779886 0
+12875.532319 -251.445129 0
-7068.554509 +118.131562 0
+3188.492017 -21.665673 0
+3517.047160 -51.387806 0
+147.272432 -2.348240 0
-2609.530568 +39.704430 0
-46464.530381 +735.119497 0
-2138.955960 +35.118066 0
+1.604713 -0.185371 0
-276.371116 +4.298506 0
-14740.849851 +224.354131 0
-85275.542350 +1468.152223 0
-46464.628797 +735.121018 0
-2616.251404 +39.801135 0
-39.589844 +0.382024 0
-2.452097 -0.298016 0
-85275.679684 +1468.154210 0
-14741.171416 +224.357970 0
-285.533876 +4.431408 0
+3.247524 -0.358408 0
-0.927262 -0.280975 0
-0.567108 -0.056296 0
-0.680272 -0.059512 0
-0.831025 -0.063012 0
-1.038062 -0.066830 0
-1.333333 -0.071006 0
-1.775148 -0.075586 0
-2.479339 -0.080623 0
-3.703704 -0.086182 0
-6.122449 -0.092336 0
-0.520833 -0.054785 0
-0.619835 -0.057870 0
-0.750000 -0.061224 0
-0.925926 -0.064879 0
-1.171875 -0.068871 0
-1.530612 -0.073242 0
-2.083333 -0.078044 0
-3.000000 -0.083333 0
-4.687500 -0.089180 0
-8.333333 -0.095663 0
+6.122449 -0.162250 0
+3.703704 -0.178465 0
+2.479339 -0.197239 0
+1.775148 -0.219138 0
+1.333333 -0.244898 0
+1.038062 -0.275482 0
+0.831025 -0.312175 0
+0.680272 -0.356718 0
+0.567108 -0.411523 0
+8.333333 -0.154959 0
+4.687500 -0.170068 0
+3.000000 -0.187500 0
+2.083333 -0.207756 0
+1.530612 -0.231481 0
+1.171875 -0.259516 0
+0.925926 -0.292969 0
+0.750000 -0.333333 0
+0.619835 -0.382653 0
+0.520833 -0.443787 0
-13.729474 -0.100780 0
-15.120882 -0.102763 0
-16.139964 -0.105112 0
-16.761627 -0.107816 0
-12.904517 -0.099929 0
-14.469783 -0.101725 0
-15.678756 -0.103892 0
-16.501665 -0.106420 0
-16.918248 -0.109297 0
-16.766691 -0.114225 0
-16.144840 -0.117876 0
-15.125450 -0.121773 0
-13.733621 -0.125855 0
-16.923359 -0.112505 0
-16.506650 -0.116017 0
-15.683492 -0.119797 0
-14.474155 -0.123795 0
-12.908415 -0.127942 0
-9.975047 -0.134238 0
-7.704474 -0.138312 0
-5.244192 -0.142115 0
-2.654781 -0.145484 0
-11.021499 -0.132148 0
-8.867095 -0.136299 0
-6.494353 -0.140257 0
-3.961699 -0.143865 0
-1.331495 -0.146949 0
+2.655583 -0.150212 0
+5.245777 -0.151263 0
+7.706802 -0.151284 0
+9.978060 -0.150235 0
+1.331897 -0.149332 0
+3.962896 -0.150861 0
+6.496315 -0.151406 0
+8.869773 -0.150893 0
+11.024828 -0.149315 0
-0.102521 -7.018201 0
-0.320961 -4.659969 0
-0.476210 -2.869038 0
-0.555153 -1.361934 0
+0.021083 -9.163668 0
-0.218153 -5.716119 0
-0.407658 -3.711158 0
-0.525306 -2.091543 0
-0.565362 -0.655373 0
-0.500468 +1.440194 0
-0.392108 +2.975341 0
-0.248178 +4.837205 0
-0.081755 +7.407572 0
-0.537584 +0.729109 0
-0.452463 +2.179320 0
-0.324374 +3.841947 0
-0.167426 +5.978448 0
+0.006176 +9.139541 0
+0.274743 +19.357872 0
+0.443266 +35.875459 0
+0.586853 +72.102793 0
+0.682579 +140.635240 0
+0.186004 +14.615885 0
+0.361526 +25.534006 0
+0.520269 +48.963696 0
+0.644388 +93.954375 0
+0.712135 +81.032866 0
+0.682576 +140.516183 0
+0.586946 +72.043133 0
+0.443589 +35.742265 0
+0.275592 +18.994349 0
+0.712088 +80.919519 0
+0.644423 +93.877133 0
+0.520454 +48.881190 0
+0.362039 +25.307409 0
+0.187819 +14.655726 0
-41819.905249 +285.328759 0
+62335.441408 -1110.350542 0
+130891.784470 -1662.247865 0
-142182.823249 +1941.877157 0
-33934.518366 +570.227641 0
+81164.683619 -1147.590560 0
+29097.687142 -480.785431 0
-22931.062513 +274.480976 0
-99473.085713 +1651.802835 0
-20003.424479 +121.270349 0
-16983.214563 -95.834856 0
+114710.348091 -1671.859602 0
+51658.935829 -547.326012 0
-188981.891309 +2568.138355 0
+66133.626001 -786.250060 0
+77904.769703 -1232.126240 0
-9625.654361 +66.335636 0
-45850.828480 +652.651624 0
-111313.991979 +1990.577796 0
-43476.964167 +299.458308 0
+53935.095461 -978.734567 0
+155993.821228 -2034.770075 0
-184511.065238 +2546.119946 0
+9185.141474 -9.215532 0
+87514.757382 -1330.647139 0
-62947.422675 +944.063210 0
+10259.208351 -114.161932 0
+12308.733322 -176.055138 0
-20909.444228 +134.493293 0
-11162.358925 -171.284314 0
+104990.181491 -1553.048203 0
+67453.472242 -731.504425 0
-221188.761887 +2969.444383 0
+123560.514282 -1545.638078 0
+29669.758140 -617.444159 0
-69939.835890 +1071.433312 0
+36710.084631 -549.633312 0
-11207.618448 +160.474073 0
-0.865235 +0.026392 0
-1.410832 +0.052530 0
-1.761355 +0.080416 0
-1.679277 +0.094181 0
-1.021439 +0.090990 0
-1.291388 +0.103276 0
-1.538623 +0.110032 0
-1.147210 +0.104622 0
-1.201680 +0.105223 0
-0.653450 +0.029370 0
-1.132478 +0.036169 0
-1.638311 +0.068236 0
-1.768702 +0.088742 0
-1.384436 +0.093874 0
-1.168279 +0.098838 0
-1.039398 +0.098118 0
-1.432539 +0.107813 0
-1.077365 +0.102823 0
-1.207115 +0.105369 0
+1.246213 -488.923281 0
+1.467314 +69.816878 0
+1.434757 +1426.635938 0
+2.499838 -2252.670304 0
+1.861991 -106.411105 0
+1.011279 +1938.552514 0
+0.642141 +1315.930378 0
+0.703865 -877.788797 0
+1.296550 -3645.111350 0
+0.874874 +245.485955 0
+1.402085 -495.916525 0
+1.499668 +658.346592 0
+1.733217 +592.276477 0
+2.606728 -2732.233077 0
+1.289307 +1609.024636 0
+0.781185 +1879.182657 0
+0.604193 +393.319336 0
+0.900463 -2241.856720 0
+1.249067 -5213.586727 0
-16512.958389 +239.203920 0
+6155.098661 -109.882407 0
+23606.694932 -352.703209 0
+240.895691 +24.078362 0
-52414.696881 +736.323602 0
+9357.754781 -86.342538 0
+59814.693859 -862.734308 0
+19361.675533 -454.913581 0
-16652.385101 +51.089514 0
+599.364740 -8.270730 0
+3255.712880 -46.064974 0
-1678.839353 +28.558929 0
-9081.408817 +133.014598 0
-4127.866368 +62.976028 0
+16785.328571 -242.182053 0
+26267.594377 -428.593793 0
+8184.750184 -237.537894 0
-6451.957926 -18.171275 0
+7.795619 -0.467001 0
-505.893372 +7.129582 0
-1184.720728 +16.567461 0
-146.957247 +0.328102 0
+4645.850287 -73.189103 0
+10586.234060 -172.741584 0
+10955.807160 -204.925664 0
+3848.755798 -126.951173 0
-2180.293957 -29.263882 0
-24.063624 -0.057203 0
+47.651096 -1.466283 0
+468.897491 -8.458754 0
+1507.021689 -25.429849 0
+3118.083913 -52.776582 0
+4465.707704 -79.602361 0
+4097.707920 -84.566417 0
+1654.959545 -56.739896 0
-567.838635 -18.360516 0
-26098.053638 +407.553996 0
-40978.562605 +637.918837 0
-8153.989282 +117.899185 0
-7664.461702 +88.832244 0
+20239.190959 -312.184790 0
+39359.832959 -605.962327 0
+15596.891940 -197.020819 0
+33204.518716 -412.147687 0
-34030.749794 +482.798200 0
-76941.718778 +1075.486765 0
-27464.875315 +408.814941 0
-24941.844761 +399.484820 0
+40827.467227 -542.568809 0
+83364.277918 -1133.714903 0
+48944.318853 -791.724049 0
+36346.715178 -716.807206 0
-5832.987528 -129.142452 0
-26233.495994 +133.360308 0
-11356.286041 +53.678055 0
-2501.094692 +37.164335 0
-4815.395038 +68.160773 0
+3325.197967 -51.120980 0
+8415.286379 -130.815647 0
+1369.663709 -16.834221 0
+6761.269084 -90.774321 0
-5863.600153 +85.472056 0
-13971.928400 +202.970244 0
-9419.280328 +138.542362 0
-19716.695052 +288.232177 0
+6469.831239 -86.852022 0
+17807.277140 -233.938092 0
+24744.749401 -376.825295 0
+39312.146348 -604.434018 0
+18915.992013 -361.150309 0
+11917.076049 -319.028032 0
-1330.436085 -109.310401 0
-10213.148500 +2.613583 0
-5205.989305 +9.314275 0
+366.196883 -5.512409 0
+1007.120927 -14.660005 0
-390.075768 +6.242224 0
+30.290396 +1.066626 0
-998.584510 +14.197968 0
-2674.116745 +39.629260 0
-1096.411102 +15.301003 0
-3774.323018 +55.239486 0
+2075.720858 -33.211559 0
+3045.831544 -44.800272 0
+7836.241228 -124.762233 0
+14173.001708 -218.973398 0
+11665.252758 -200.681546 0
+16702.480492 -293.862127 0
+7933.756497 -175.745309 0
+5519.364537 -173.699003 0
+143.897583 -73.963578 0
-3732.769426 -28.792394 0
-2007.042553 -6.738416 0
-95.717938 +1.016558 0
-171.366046 +2.163176 0
+18.440755 -0.996226 0
-273.310155 +3.255049 0
+206.031410 -4.132121 0
-40.122051 -0.802575 0
+927.864408 -15.958799 0
+1451.372329 -24.414866 0
+2268.843416 -38.115825 0
+4398.905750 -72.091725 0
+3923.190336 -67.654269 0
+7243.844497 -124.412772 0
+4536.313922 -85.683374 0
+6858.010285 -136.318588 0
+3030.027620 -73.817528 0
+2599.601502 -88.573868 0
+338.024893 -36.841286 0
-1118.372259 -25.645859 0
-624.016864 -6.542841 0
+28.535633 -0.774100 0
+121.357353 -2.353484 0
+388.754705 -6.794937 0
+902.924812 -15.381386 0
+1602.743904 -27.697486 0
+2114.597387 -38.757964 0
+1886.576169 -40.182967 0
+793.717730 -27.550518 0
-215.764475 -9.660916 0
-16654.793244 +51.179524 0
-6443.066290 -18.335290 0
-2225.247290 -28.130568 0
-1100.924283 -9.067903 0
+19346.893473 -454.715957 0
+8201.473888 -238.016781 0
+3740.893265 -124.318100 0
+2459.416328 -74.692940 0
+59815.372024 -862.778102 0
+26260.320487 -428.489985 0
+10940.201215 -204.456851 0
+4607.661819 -96.740898 0
+9373.486434 -86.559043 0
+16790.675975 -242.249369 0
+10581.543862 -172.667405 0
+3238.562765 -55.348370 0
-52417.183368 +736.362941 0
-4124.473227 +62.893129 0
+4694.521478 -74.079736 0
+5117.091322 -88.092400 0
+236.080469 +24.143650 0
-9083.447336 +133.066447 0
-208.402432 +1.318740 0
-653.647695 +8.323540 0
+23606.786878 -352.703934 0
-1683.145878 +28.637624 0
-1197.709617 +16.866953 0
+1191.318118 -16.081953 0
+6156.801349 -109.909752 0
+3264.985591 -46.204087 0
-332.842498 +4.365030 0
+1939.628467 -32.760284 0
-16512.483026 +239.195475 0
+586.854158 -8.083352 0
-247.607700 +3.322647 0
-3806.659407 +56.389993 0
-26233.388020 +133.397364 0
-11349.901859 +53.638553 0
-10209.879627 +2.565602 0
-5199.300594 +9.304674 0
-3754.482839 -28.237213 0
-1960.455543 -7.315292 0
-1342.703543 -21.738168 0
-32.786225 -15.888927 0
+188.844393 -34.981378 0
+36334.503146 -716.653531 0
-5840.951539 -129.050135 0
+11917.143818 -319.135076 0
-1343.403432 -109.030581 0
+5484.851214 -172.863223 0
+154.323580 -74.374792 0
+2897.148840 -95.170945 0
+8.373746 -30.827853 0
+334.439473 -3.673478 0
+83368.241068 -1133.789639 0
+48935.906947 -791.644660 0
+39310.725764 -604.444657 0
+18905.028199 -360.943639 0
+16678.134139 -293.302197 0
+8029.186601 -178.001292 0
+6941.070490 -138.893386 0
+2862.661541 -67.997969 0
+1392.243207 -32.767480 0
-24928.034049 +399.304189 0
+40837.694670 -542.718364 0
+17814.663369 -234.040271 0
+24752.048285 -376.966952 0
+14188.385009 -219.254817 0
+11583.897571 -199.006872 0
+7159.519593 -122.243237 0
+4228.728052 -81.169580 0
+775.334493 -9.771081 0
-76950.996406 +1075.610136 0
-27455.777357 +408.691468 0
-19714.199840 +288.195574 0
+6472.760511 -86.905645 0
+3048.273406 -44.882356 0
+7892.004055 -125.736614 0
+4542.178438 -75.067660 0
+4572.269935 -77.700152 0
+4775.059735 -86.834995 0
+33202.965487 -412.119750 0
-34037.448705 +482.886831 0
-13974.857737 +203.012539 0
-9421.533297 +138.598045 0
-3790.313958 +55.531961 0
+2064.500884 -33.210610 0
+1216.392407 -20.541199 0
+1890.018908 -33.928523 0
-2749.705722 +43.246204 0
+39361.576370 -605.988832 0
+15593.975421 -196.970635 0
+6760.506678 -90.757115 0
-5862.410241 +85.445058 0
-2650.514675 +39.266827 0
-1152.309725 +16.369753 0
+183.376508 -3.838395 0
+319.423188 -4.554242 0
+2120.473117 -27.435534 0
-7663.619228 +88.818449 0
+20241.055384 -312.211392 0
+8415.516698 -130.818629 0
+1372.043669 -16.874015 0
+19.328012 +1.198122 0
-896.367177 +12.650629 0
-385.279769 +4.633200 0
+1651.813878 -26.041351 0
+701.048427 -15.999269 0
-40977.970714 +637.907870 0
-8153.394836 +117.890522 0
-4815.833139 +68.168792 0
+3323.171041 -51.099094 0
+1004.534570 -14.626120 0
-459.577029 +7.211660 0
-132.637498 +1.598628 0
-1096.199940 +13.838324 0
+665.199101 -11.772347 0
-26097.860634 +407.550420 0
-2502.001735 +37.179622 0
+343.675000 -5.146944 0
-107.190428 +2.023438 0
-3807.630113 +56.405060 0
-273.085057 +3.716312 0
+440.992025 -6.414176 0
-2826.046851 +40.462873 0
+1939.816528 -32.762933 0
-340.731178 +4.493329 0
+2391.302463 -32.700755 0
-6450.865857 +84.388641 0
+1192.197643 -16.095844 0
-1157.109511 +16.238782 0
-1254.582879 +22.817312 0
+17367.966986 -271.750237 0
-654.517069 +8.335202 0
-236.709883 +1.742269 0
-8670.252324 +125.855474 0
+10183.096591 -107.363960 0
+5115.786172 -88.065812 0
+4688.277339 -73.968159 0
-4796.103107 +73.509429 0
-57535.015935 +796.906417 0
+3240.612219 -55.384376 0
+10604.713444 -173.018952 0
+17203.240818 -248.266773 0
+10571.218395 -94.334588 0
+4605.523191 -96.703095 0
+10917.417018 -204.123885 0
+26147.118157 -427.324996 0
+59841.011130 -867.791357 0
+2462.788093 -74.738434 0
+3754.787913 -124.455899 0
+8192.762549 -237.447642 0
+19131.796748 -449.179375 0
-1102.925391 -9.064040 0
-2227.556533 -28.185100 0
-6423.517173 -18.914604 0
-16402.653686 +46.438848 0
+665.181875 -11.771713 0
-107.020268 +2.020932 0
-136.237649 +1.655128 0
+347.767577 -5.213547 0
+862.211252 -12.522413 0
-1294.549925 +18.434982 0
-3518.283348 +50.311229 0
+4022.947099 -57.536378 0
+12157.503576 -173.916563 0
+700.800202 -15.995885 0
-1096.900770 +13.849795 0
-381.033350 +4.569018 0
-476.403485 +7.473983 0
-60.549934 +2.575949 0
+2638.458930 -40.780175 0
+4231.229449 -69.724082 0
-11242.936248 +170.100421 0
-25037.212517 +388.391115 0
+2121.156760 -27.447147 0
+1652.244072 -26.049196 0
+185.802479 -3.878783 0
-872.897679 +12.295906 0
-2472.880299 +36.525237 0
+1215.745102 -13.906039 0
+7435.357665 -98.889626 0
+9123.251707 -152.904548 0
+10203.120753 -195.538163 0
-2750.244506 +43.256968 0
+320.966904 -4.579515 0
+1212.409523 -20.482594 0
-1157.077467 +16.434890 0
-3842.575831 +56.217827 0
-5254.408616 +75.820137 0
-12122.812289 +174.763524 0
+20299.358973 -257.035664 0
+52584.806828 -683.537351 0
+4774.550108 -86.827407 0
+1885.755989 -33.855868 0
+4539.676040 -75.016814 0
+2059.970786 -33.161950 0
+2978.450283 -43.725268 0
-9867.043136 +145.366395 0
-21492.244225 +313.743130 0
-32075.818837 +444.352979 0
-77909.278360 +1074.126035 0
+776.810725 -9.797074 0
+4576.280236 -77.768334 0
+7166.264393 -122.356990 0
+7885.418715 -125.573585 0
+14262.354161 -220.329080 0
+6598.214335 -88.666516 0
+18685.578060 -245.604934 0
-30994.557685 +466.858534 0
-31203.408853 +506.736374 0
+1390.353979 -32.732239 0
+4226.298337 -81.127574 0
+6933.337473 -138.764436 0
+11598.438879 -199.294216 0
+16650.545821 -293.045152 0
+24788.702290 -377.596858 0
+39014.373381 -601.077669 0
+43224.770873 -580.052710 0
+88629.612809 -1223.328097 0
+336.770761 -3.713010 0
+2863.219952 -67.997605 0
+2903.577689 -95.246421 0
+8016.344150 -177.758403 0
+5487.199008 -172.722760 0
+18827.169208 -359.742384 0
+11955.788731 -318.825737 0
+47868.800082 -776.063511 0
+34893.345551 -687.709585 0
+187.250509 -34.966887 0
+10.285675 -30.860526 0
-1344.253921 -21.760900 0
+167.106513 -74.572054 0
-3750.446590 -28.455970 0
-1265.334720 -110.086238 0
-10132.505595 +0.904542 0
-5423.328997 -134.625485 0
-27717.645305 +149.113954 0
-33.915512 -15.883748 0
-1970.699129 -7.218649 0
-5258.296443 +9.954580 0
-11637.188267 +57.306687 0
-16401.630396 +46.420449 0
-6431.254004 -18.706740 0
-2177.613714 -29.316113 0
-559.679275 -18.405984 0
+19122.192756 -449.082326 0
+8166.441826 -236.852121 0
+3861.524820 -127.071695 0
+1661.164763 -56.806472 0
+59838.026907 -867.784589 0
+26152.642668 -427.442136 0
+10932.775782 -204.617832 0
+4098.694416 -84.609584 0
+10588.756183 -94.568529 0
+17205.269308 -248.317855 0
+10609.956384 -173.131007 0
+4468.352640 -79.701815 0
-57537.616385 +796.933691 0
-4796.796509 +73.559038 0
+4637.352402 -73.058014 0
+3114.197872 -52.781176 0
+10175.236297 -107.229543 0
-8669.987940 +125.834391 0
-182.814223 +0.892990 0
+1496.320692 -25.343704 0
+17375.562194 -271.903725 0
-1240.276268 +22.485212 0
-1152.402082 +16.176204 0
+445.957818 -8.182499 0
-6457.669686 +84.546252 0
+2335.729657 -31.347893 0
-511.944838 +7.550033 0
-13.458617 -0.486576 0
-2820.889302 +40.321315 0
+567.452374 -9.429235 0
+439.599277 -11.914315 0
-169.536735 +2.724245 0
-27716.017189 +149.102263 0
-11632.977905 +57.304613 0
-10136.404308 +1.013818 0
-5257.841482 +9.960395 0
-3725.902655 -28.986845 0
-2007.527983 -6.657000 0
-1112.471147 -25.689653 0
-611.433249 -6.570395 0
-205.011939 -9.720746 0
+34884.236738 -687.613454 0
-5434.426726 -134.455046 0
+11940.488650 -318.534682 0
-1258.573903 -110.264923 0
+5517.192143 -173.501362 0
+157.656509 -74.141840 0
+2607.521655 -88.659485 0
+345.854544 -36.914785 0
+800.532062 -27.629801 0
+88630.756644 -1223.366088 0
+47860.867582 -775.984951 0
+39013.066920 -601.078711 0
+18831.314994 -359.887500 0
+16673.633394 -293.618582 0
+7919.774546 -175.504332 0
+6851.418566 -136.235755 0
+3033.692467 -73.872187 0
+1890.317430 -40.271044 0
-31186.639970 +506.519508 0
+43235.675667 -580.224314 0
+18693.778359 -245.728306 0
+24784.596376 -377.529971 0
+14249.440623 -220.104697 0
+11680.392621 -201.009507 0
+7250.764074 -124.570517 0
+4535.737655 -85.715072 0
+2116.641308 -38.860104 0
-77922.162041 +1074.296971 0
-30985.398724 +466.742214 0
-21490.604163 +313.729243 0
+6601.696743 -88.706143 0
+2976.097957 -43.643950 0
+7829.264257 -124.617897 0
+4393.167506 -72.031920 0
+3926.336471 -67.772138 0
+1602.386831 -27.792751 0
+52586.181596 -683.550644 0
-32085.409578 +444.489372 0
-12124.663419 +174.773696 0
-9865.060330 +145.326898 0
-3829.774710 +55.998990 0