# vtk DataFile Version 2.0
MyTitle
ASCII
DATASET UNSTRUCTURED_GRID
POINTS 1841 double
-2.000000 0.000000 0.000000
-1.000000 0.000000 0.000000
0.000000 1.000000 0.000000
1.000000 0.000000 0.000000
3.000000 0.000000 0.000000
4.000000 1.000000 0.000000
5.000000 0.000000 0.000000
6.000000 0.000000 0.000000
6.000000 3.000000 0.000000
-2.000000 3.000000 0.000000
-1.750000 0.000000 0.000000
-1.500000 0.000000 0.000000
-1.250000 0.000000 0.000000
-1.875000 0.000000 0.000000
-1.625000 0.000000 0.000000
-1.375000 0.000000 0.000000
-1.125000 0.000000 0.000000
-0.987688 0.156434 0.000000
-0.951057 0.309017 0.000000
-0.891007 0.453990 0.000000
-0.809017 0.587785 0.000000
-0.707107 0.707107 0.000000
-0.587785 0.809017 0.000000
-0.453990 0.891007 0.000000
-0.309017 0.951057 0.000000
-0.156434 0.987688 0.000000
-0.996917 0.078459 0.000000
-0.972370 0.233445 0.000000
-0.923880 0.382683 0.000000
-0.852640 0.522499 0.000000
-0.760406 0.649448 0.000000
-0.649448 0.760406 0.000000
-0.522499 0.852640 0.000000
-0.382683 0.923880 0.000000
-0.233445 0.972370 0.000000
-0.078459 0.996917 0.000000
0.156434 0.987688 0.000000
0.309017 0.951057 0.000000
0.453990 0.891007 0.000000
0.587785 0.809017 0.000000
0.707107 0.707107 0.000000
0.809017 0.587785 0.000000
0.891007 0.453990 0.000000
0.951057 0.309017 0.000000
0.987688 0.156434 0.000000
0.078459 0.996917 0.000000
0.233445 0.972370 0.000000
0.382683 0.923880 0.000000
0.522499 0.852640 0.000000
0.649448 0.760406 0.000000
0.760406 0.649448 0.000000
0.852640 0.522499 0.000000
0.923880 0.382683 0.000000
0.972370 0.233445 0.000000
0.996917 0.078459 0.000000
1.200000 0.000000 0.000000
1.400000 0.000000 0.000000
1.600000 0.000000 0.000000
1.800000 0.000000 0.000000
2.000000 0.000000 0.000000
2.200000 0.000000 0.000000
2.400000 0.000000 0.000000
2.600000 0.000000 0.000000
2.800000 0.000000 0.000000
1.100000 0.000000 0.000000
1.300000 0.000000 0.000000
1.500000 0.000000 0.000000
1.700000 0.000000 0.000000
1.900000 0.000000 0.000000
2.100000 0.000000 0.000000
2.300000 0.000000 0.000000
2.500000 0.000000 0.000000
2.700000 0.000000 0.000000
2.900000 0.000000 0.000000
3.012312 0.156434 0.000000
3.048943 0.309017 0.000000
3.108993 0.453990 0.000000
3.190983 0.587785 0.000000
3.292893 0.707107 0.000000
3.412215 0.809017 0.000000
3.546010 0.891007 0.000000
3.690983 0.951057 0.000000
3.843566 0.987688 0.000000
3.003083 0.078459 0.000000
3.027630 0.233445 0.000000
3.076120 0.382683 0.000000
3.147360 0.522499 0.000000
3.239594 0.649448 0.000000
3.350552 0.760406 0.000000
3.477501 0.852640 0.000000
3.617317 0.923880 0.000000
3.766555 0.972370 0.000000
3.921541 0.996917 0.000000
4.156434 0.987688 0.000000
4.309017 0.951057 0.000000
4.453990 0.891007 0.000000
4.587785 0.809017 0.000000
4.707107 0.707107 0.000000
4.809017 0.587785 0.000000
4.891007 0.453990 0.000000
4.951057 0.309017 0.000000
4.987688 0.156434 0.000000
4.078459 0.996917 0.000000
4.233445 0.972370 0.000000
4.382683 0.923880 0.000000
4.522499 0.852640 0.000000
4.649448 0.760406 0.000000
4.760406 0.649448 0.000000
4.852640 0.522499 0.000000
4.923880 0.382683 0.000000
4.972370 0.233445 0.000000
4.996917 0.078459 0.000000
5.250000 0.000000 0.000000
5.500000 0.000000 0.000000
5.750000 0.000000 0.000000
5.125000 0.000000 0.000000
5.375000 0.000000 0.000000
5.625000 0.000000 0.000000
5.875000 0.000000 0.000000
6.000000 0.300000 0.000000
6.000000 0.600000 0.000000
6.000000 0.900000 0.000000
6.000000 1.200000 0.000000
6.000000 1.500000 0.000000
6.000000 1.800000 0.000000
6.000000 2.100000 0.000000
6.000000 2.400000 0.000000
6.000000 2.700000 0.000000
6.000000 0.150000 0.000000
6.000000 0.450000 0.000000
6.000000 0.750000 0.000000
6.000000 1.050000 0.000000
6.000000 1.350000 0.000000
6.000000 1.650000 0.000000
6.000000 1.950000 0.000000
6.000000 2.250000 0.000000
6.000000 2.550000 0.000000
6.000000 2.850000 0.000000
5.764706 3.000000 0.000000
5.529412 3.000000 0.000000
5.294118 3.000000 0.000000
5.058824 3.000000 0.000000
4.823529 3.000000 0.000000
4.588235 3.000000 0.000000
4.352941 3.000000 0.000000
4.117647 3.000000 0.000000
3.882353 3.000000 0.000000
3.647059 3.000000 0.000000
3.411765 3.000000 0.000000
3.176471 3.000000 0.000000
2.941176 3.000000 0.000000
2.705882 3.000000 0.000000
2.470588 3.000000 0.000000
2.235294 3.000000 0.000000
2.000000 3.000000 0.000000
1.764706 3.000000 0.000000
1.529412 3.000000 0.000000
1.294118 3.000000 0.000000
1.058824 3.000000 0.000000
0.823529 3.000000 0.000000
0.588235 3.000000 0.000000
0.352941 3.000000 0.000000
0.117647 3.000000 0.000000
-0.117647 3.000000 0.000000
-0.352941 3.000000 0.000000
-0.588235 3.000000 0.000000
-0.823529 3.000000 0.000000
-1.058824 3.000000 0.000000
-1.294118 3.000000 0.000000
-1.529412 3.000000 0.000000
-1.764706 3.000000 0.000000
5.882353 3.000000 0.000000
5.647059 3.000000 0.000000
5.411765 3.000000 0.000000
5.176471 3.000000 0.000000
4.941176 3.000000 0.000000
4.705882 3.000000 0.000000
4.470588 3.000000 0.000000
4.235294 3.000000 0.000000
4.000000 3.000000 0.000000
3.764706 3.000000 0.000000
3.529412 3.000000 0.000000
3.294118 3.000000 0.000000
3.058824 3.000000 0.000000
2.823529 3.000000 0.000000
2.588235 3.000000 0.000000
2.352941 3.000000 0.000000
2.117647 3.000000 0.000000
1.882353 3.000000 0.000000
1.647059 3.000000 0.000000
1.411765 3.000000 0.000000
1.176471 3.000000 0.000000
0.941176 3.000000 0.000000
0.705882 3.000000 0.000000
0.470588 3.000000 0.000000
0.235294 3.000000 0.000000
0.000000 3.000000 0.000000
-0.235294 3.000000 0.000000
-0.470588 3.000000 0.000000
-0.705882 3.000000 0.000000
-0.941176 3.000000 0.000000
-1.176471 3.000000 0.000000
-1.411765 3.000000 0.000000
-1.647059 3.000000 0.000000
-1.882353 3.000000 0.000000
-2.000000 2.700000 0.000000
-2.000000 2.400000 0.000000
-2.000000 2.100000 0.000000
-2.000000 1.800000 0.000000
-2.000000 1.500000 0.000000
-2.000000 1.200000 0.000000
-2.000000 0.900000 0.000000
-2.000000 0.600000 0.000000
-2.000000 0.300000 0.000000
-2.000000 2.850000 0.000000
-2.000000 2.550000 0.000000
-2.000000 2.250000 0.000000
-2.000000 1.950000 0.000000
-2.000000 1.650000 0.000000
-2.000000 1.350000 0.000000
-2.000000 1.050000 0.000000
-2.000000 0.750000 0.000000
-2.000000 0.450000 0.000000
-2.000000 0.150000 0.000000
1.964119 1.449704 0.000000
1.058289 1.866560 0.000000
3.073590 1.972601 0.000000
4.379508 1.931243 0.000000
-0.380958 1.941324 0.000000
2.434416 0.776862 0.000000
1.496650 0.838663 0.000000
-0.957296 1.563625 0.000000
4.956241 1.542949 0.000000
3.683345 1.681923 0.000000
0.332220 1.659072 0.000000
2.267996 2.064368 0.000000
2.956725 1.290282 0.000000
1.111799 1.151897 0.000000
1.651734 2.007559 0.000000
0.548201 2.145653 0.000000
5.050908 2.168617 0.000000
-1.049806 2.180673 0.000000
4.309522 1.567352 0.000000
-0.318455 1.576828 0.000000
2.480302 1.790796 0.000000
5.534418 0.696998 0.000000
-1.532458 0.708811 0.000000
2.082176 0.384531 0.000000
-0.571226 1.444125 0.000000
4.563695 1.429725 0.000000
2.842520 2.283477 0.000000
1.487073 1.627079 0.000000
3.551655 1.306729 0.000000
0.465400 1.268299 0.000000
-0.864546 1.062261 0.000000
4.860736 1.049280 0.000000
1.946394 1.051404 0.000000
4.231637 2.409781 0.000000
-0.225416 2.413351 0.000000
2.809758 0.536959 0.000000
1.097072 0.680087 0.000000
2.456203 1.335017 0.000000
1.966234 2.378673 0.000000
2.471392 0.357726 0.000000
1.667305 0.383508 0.000000
-0.663567 1.679051 0.000000
4.661010 1.661083 0.000000
5.467530 1.834598 0.000000
-1.467363 1.843755 0.000000
1.640140 1.259448 0.000000
2.030508 1.881125 0.000000
5.377662 1.261206 0.000000
2.975601 0.803270 0.000000
4.762554 2.270806 0.000000
-0.761400 2.279674 0.000000
3.862079 1.988532 0.000000
0.153208 1.983291 0.000000
5.388045 2.402023 0.000000
-1.386005 2.406663 0.000000
3.510294 2.152616 0.000000
4.051804 1.335442 0.000000
2.710470 1.954876 0.000000
2.388194 2.564642 0.000000
0.862108 2.653736 0.000000
3.185008 2.604280 0.000000
2.711881 1.055048 0.000000
3.185838 1.540159 0.000000
0.864666 1.437783 0.000000
1.372455 1.926092 0.000000
1.367323 2.566004 0.000000
3.156300 2.253518 0.000000
1.027678 2.272601 0.000000
2.736227 0.317866 0.000000
1.280297 0.347100 0.000000
5.308482 0.332453 0.000000
-1.307035 0.338174 0.000000
4.921179 2.611791 0.000000
-0.919000 2.615820 0.000000
5.133884 0.667704 0.000000
-1.134202 0.677269 0.000000
4.110323 1.768533 0.000000
-0.115494 1.771063 0.000000
3.623760 2.546876 0.000000
0.406287 2.557435 0.000000
-1.377900 1.274749 0.000000
1.780109 1.736285 0.000000
5.044788 1.880808 0.000000
-1.044261 1.896644 0.000000
-0.057200 1.332145 0.000000
2.703441 1.534578 0.000000
3.363246 1.828705 0.000000
0.697245 1.773580 0.000000
1.177908 1.548779 0.000000
4.600617 2.702777 0.000000
-0.598066 2.704733 0.000000
4.702902 1.941767 0.000000
-0.702064 1.957283 0.000000
1.990755 0.770756 0.000000
3.212403 1.044827 0.000000
0.831074 0.970815 0.000000
1.296115 1.313131 0.000000
2.231466 1.615391 0.000000
2.918232 1.744832 0.000000
-1.589011 0.376809 0.000000
5.595569 0.364275 0.000000
1.874924 2.070882 0.000000
1.178478 2.743687 0.000000
-0.456308 1.729660 0.000000
4.452105 1.714168 0.000000
1.319141 2.158028 0.000000
-0.810086 1.367469 0.000000
4.804334 1.348004 0.000000
1.550203 2.286769 0.000000
3.929808 1.595784 0.000000
0.064215 1.590914 0.000000
2.782130 2.614966 0.000000
-0.447368 1.195019 0.000000
4.440943 1.186719 0.000000
2.875683 2.067784 0.000000
2.547573 2.216729 0.000000
2.182563 1.159701 0.000000
2.881659 0.672743 0.000000
2.937510 0.425039 0.000000
3.090372 0.691347 0.000000
3.003860 0.560746 0.000000
1.864806 1.593727 0.000000
1.637637 1.676276 0.000000
1.556760 1.466279 0.000000
1.819280 1.365729 0.000000
1.718562 1.522533 0.000000
1.775440 0.794054 0.000000
1.961308 0.939217 0.000000
1.832276 1.123547 0.000000
1.573507 1.054911 0.000000
1.779298 0.978723 0.000000
2.310621 2.774700 0.000000
1.867123 2.659606 0.000000
2.188690 2.501559 0.000000
2.090360 2.736112 0.000000
5.131868 2.540271 0.000000
5.471091 2.723096 0.000000
4.996525 2.800177 0.000000
5.223606 2.761564 0.000000
[...]
POINT_DATA 1841
VECTORS sol double
-2.666667 +0.000000 0
-11.520000 +0.000000 0
+0.684806 +11.828798 0
+13.333333 +0.000000 0
+13.333333 +0.000000 0
+0.684806 -11.828798 0
-11.520000 +0.000000 0
-2.666667 +0.000000 0
-0.273517 -0.648789 0
-0.273517 +0.648789 0
-3.555418 +0.000000 0
-4.936639 +0.000000 0
-7.244626 +0.000000 0
-3.065665 +0.000000 0
-4.165119 +0.000000 0
-5.931748 +0.000000 0
-9.024611 +0.000000 0
-11.370598 +1.862107 0
-10.925988 +3.677827 0
-10.196861 +5.401919 0
-9.200736 +6.991397 0
-7.961517 +8.406601 0
-6.508887 +9.612180 0
-4.877563 +10.577987 0
-3.106422 +11.279857 0
-1.237545 +11.700256 0
-11.482593 +0.933966 0
-11.184690 +2.778633 0
-10.596050 +4.554079 0
-9.730822 +6.216054 0
-8.609785 +7.723105 0
-7.259817 +9.037609 0
-5.713219 +10.126714 0
-4.006903 +10.963172 0
-2.181473 +11.526062 0
-0.280230 +11.801368 0
+2.615213 +11.662615 0
+4.508076 +11.206575 0
+6.318484 +10.473323 0
+8.002892 +9.483090 0
+9.519610 +8.263172 0
+10.829177 +6.846938 0
+11.894888 +5.272246 0
+12.683910 +3.579362 0
+13.169385 +1.808813 0
+1.651859 +11.782426 0
+3.569169 +11.470218 0
+5.426347 +10.873510 0
+7.179092 +10.008780 0
+8.784735 +8.899883 0
+10.202655 +7.577311 0
+11.394677 +6.076912 0
+12.325835 +4.438029 0
+12.965959 +2.701299 0
+13.292244 +0.906781 0
+9.863946 +0.000000 0
+7.897597 +0.000000 0
+6.770833 +0.000000 0
+6.183043 +0.000000 0
+6.000000 +0.000000 0
+6.183043 +0.000000 0
+6.770833 +0.000000 0
+7.897597 +0.000000 0
+9.863946 +0.000000 0
+11.344228 +0.000000 0
+8.746682 +0.000000 0
+7.253333 +0.000000 0
+6.420680 +0.000000 0
+6.045188 +0.000000 0
+6.045188 +0.000000 0
+6.420680 +0.000000 0
+7.253333 +0.000000 0
+8.746682 +0.000000 0
+11.344228 +0.000000 0
+13.169385 -1.808813 0
+12.683910 -3.579362 0
+11.894888 -5.272246 0
+10.829177 -6.846938 0
+9.519610 -8.263172 0
+8.002892 -9.483090 0
+6.318484 -10.473323 0
+4.508076 -11.206575 0
+2.615213 -11.662615 0
+13.292244 -0.906781 0
+12.965959 -2.701299 0
+12.325835 -4.438029 0
+11.394677 -6.076912 0
+10.202655 -7.577311 0
+8.784735 -8.899883 0
+7.179092 -10.008780 0
+5.426347 -10.873510 0
+3.569169 -11.470218 0
+1.651859 -11.782426 0
-1.237545 -11.700256 0
-3.106422 -11.279857 0
-4.877563 -10.577987 0
-6.508887 -9.612180 0
-7.961517 -8.406601 0
-9.200736 -6.991397 0
-10.196861 -5.401919 0
-10.925988 -3.677827 0
-11.370598 -1.862107 0
-0.280230 -11.801368 0
-2.181473 -11.526062 0
-4.006903 -10.963172 0
-5.713219 -10.126714 0
-7.259817 -9.037609 0
-8.609785 -7.723105 0
-9.730822 -6.216054 0
-10.596050 -4.554079 0
-11.184690 -2.778633 0
-11.482593 -0.933966 0
-7.244626 +0.000000 0
-4.936639 +0.000000 0
-3.555418 +0.000000 0
-9.024611 +0.000000 0
-5.931748 +0.000000 0
-4.165119 +0.000000 0
-3.065665 +0.000000 0
-2.569438 -0.418624 0
-2.307824 -0.758026 0
-1.952672 -0.975420 0
-1.577240 -1.072059 0
-1.231642 -1.075910 0
-0.939066 -1.020907 0
-0.703766 -0.935153 0
-0.520308 -0.837813 0
-0.379875 -0.740338 0
-2.641843 -0.214789 0
-2.455258 -0.602014 0
-2.137003 -0.882794 0
-1.763682 -1.037438 0
-1.398699 -1.083412 0
-1.078135 -1.053804 0
-0.814460 -0.980470 0
-0.606079 -0.887062 0
-0.445292 -0.788614 0
-0.322957 -0.693594 0
-0.250184 -0.722637 0
-0.214134 -0.798228 0
-0.163307 -0.872430 0
-0.096223 -0.941100 0
-0.012417 -0.999252 0
+0.087155 -1.041455 0
+0.199876 -1.062469 0
+0.321512 -1.058012 0
+0.446615 -1.025463 0
+0.569224 -0.964289 0
+0.683662 -0.876063 0
+0.785225 -0.764055 0
+0.870560 -0.632574 0
+0.937688 -0.486259 0
+0.985730 -0.329533 0
+1.014494 -0.166312 0
+1.024062 -0.000000 0
+1.014494 +0.166312 0
+0.985730 +0.329533 0
+0.937688 +0.486259 0
+0.870560 +0.632574 0
+0.785225 +0.764055 0
+0.683662 +0.876063 0
+0.569224 +0.964289 0
+0.446615 +1.025463 0
+0.321512 +1.058012 0
+0.199876 +1.062469 0
+0.087155 +1.041455 0
-0.012417 +0.999252 0
-0.096223 +0.941100 0
-0.163307 +0.872430 0
-0.214134 +0.798228 0
-0.250184 +0.722637 0
-0.263300 -0.685339 0
-0.233886 -0.760387 0
-0.190679 -0.835739 0
-0.131855 -0.907752 0
-0.056388 -0.971827 0
+0.035522 -1.022688 0
+0.142102 -1.054909 0
+0.259899 -1.063634 0
+0.384000 -1.045333 0
+0.508602 -0.998402 0
+0.627787 -0.923386 0
+0.736296 -0.822778 0
+0.830075 -0.700458 0
+0.906476 -0.560985 0
+0.964118 -0.408940 0
+1.002519 -0.248511 0
+1.021671 -0.083345 0
+1.021671 +0.083345 0
+1.002519 +0.248511 0
+0.964118 +0.408940 0
+0.906476 +0.560985 0
+0.830075 +0.700458 0
+0.736296 +0.822778 0
+0.627787 +0.923386 0
+0.508602 +0.998402 0
+0.384000 +1.045333 0
+0.259899 +1.063634 0
+0.142102 +1.054909 0
+0.035522 +1.022688 0
-0.056388 +0.971827 0
-0.131855 +0.907752 0
-0.190679 +0.835739 0
-0.233886 +0.760387 0
-0.263300 +0.685339 0
-0.379875 +0.740338 0
-0.520308 +0.837813 0
-0.703766 +0.935153 0
-0.939066 +1.020907 0
-1.231642 +1.075910 0
-1.577240 +1.072059 0
-1.952672 +0.975420 0
-2.307824 +0.758026 0
-2.569438 +0.418624 0
-0.322957 +0.693594 0
-0.445292 +0.788614 0
-0.606079 +0.887062 0
-0.814460 +0.980470 0
-1.078135 +1.053804 0
-1.398699 +1.083412 0
-1.763682 +1.037438 0
-2.137003 +0.882794 0
-2.455258 +0.602014 0
-2.641843 +0.214789 0
+3.184999 +0.081473 0
+2.120309 +1.737656 0
+1.831215 -1.801053 0
-0.118058 -2.828316 0
-0.112600 +2.796909 0
+5.269830 -1.187542 0
+5.189151 +1.446125 0
-1.440505 +2.911110 0
-1.493217 -2.963132 0
+1.423747 -3.722032 0
+1.497692 +3.804789 0
+2.005703 -0.407180 0
+3.797204 -2.928017 0
+4.404406 +2.909065 0
+2.083718 +0.554133 0
+1.222654 +1.987145 0
-0.536178 -1.702835 0
-0.524531 +1.688675 0
-0.374572 -4.417342 0
-0.384654 +4.350632 0
+2.447075 -0.908020 0
-3.464090 -1.699158 0
-3.437817 +1.718046 0
+5.707378 -0.130523 0
-1.332213 +4.469442 0
-1.362879 -4.569769 0
+1.531520 -1.067803 0
+2.790118 +1.095328 0
+2.826850 -5.657850 0
+3.065845 +5.884864 0
-3.565214 +4.858314 0
-3.657713 -4.934800 0
+4.164150 +0.137963 0
+0.243818 -1.787729 0
+0.250117 +1.782328 0
+7.855863 -2.618979 0
+7.436001 +3.486982 0
+3.528076 -1.151061 0
+1.598944 +0.039897 0
+6.645376 -0.833777 0
+6.114254 +0.570676 0
-0.893548 +3.258369 0
-0.926531 -3.323946 0
-1.016042 -1.583019 0
-1.004232 +1.575810 0
+3.705273 +0.919437 0
+2.318861 -0.052965 0
-2.154239 -2.232887 0
+6.791893 -4.040241 0
-0.276649 -1.796986 0
-0.269700 +1.784387 0
+0.774361 -2.721822 0
+0.802992 +2.730084 0
-0.465166 -1.209580 0
-0.461623 +1.207541 0
+1.149506 -2.030949 0
+0.365758 -6.507158 0
+2.076271 -1.197901 0
+1.361824 -0.392233 0
+1.018754 +1.007081 0
+1.030123 -1.089187 0
+4.669327 -2.228842 0
+2.710645 -3.078470 0
+3.113876 +3.232896 0
+2.156819 +1.078757 0
+1.303342 +0.632984 0
+1.375988 -1.477306 0
+1.475758 +1.237003 0
+8.423907 -1.541194 0
+8.165466 +1.582345 0
-5.957733 -1.594760 0
-5.950266 +1.622122 0
-0.178901 -1.294213 0
-0.176088 +1.291291 0
-5.527857 -3.458858 0
-5.460287 +3.466887 0
+0.312585 -3.577513 0
+0.301204 +3.565146 0
+0.765021 -1.439304 0
+0.783317 +1.409773 0
-2.117638 +2.222135 0
+2.579305 +0.424240 0
-0.870962 -2.121553 0
-0.847892 +2.097022 0
+0.335668 +6.538108 0
+2.998808 -1.658133 0
+1.771723 -2.631219 0
+1.961173 +2.671143 0
+2.933774 +1.965597 0
+0.023829 -1.314630 0
+0.025813 +1.313190 0
-0.529332 -2.468984 0
-0.509950 +2.434558 0
+4.874857 +0.022683 0
+5.219331 -5.272067 0
+5.822845 +5.261775 0
+3.670955 +1.928578 0
+2.825203 -0.483386 0
+2.391189 -1.887180 0
-3.996570 +1.012479 0
-3.986839 -0.972365 0
+2.008153 +0.188690 0
+1.086572 +0.696441 0
-0.467021 +3.435992 0
-0.481719 -3.502585 0
+1.767558 +0.965175 0
-1.959496 +3.955678 0
-2.031359 -4.051892 0
+1.663293 +0.572294 0
+0.824703 -4.447693 0
+0.808251 +4.480089 0
+1.208624 -0.743516 0
-2.037474 +6.755421 0
-2.059132 -6.871773 0
+1.811337 -1.344592 0
+1.730197 -0.738395 0
+3.911218 -0.466991 0
+7.371647 -3.320106 0
+9.856087 -3.208469 0
+8.486508 -5.301270 0
+9.265739 -4.268892 0
+2.870614 +0.284503 0
+2.693339 +0.735381 0
+3.177248 +1.038466 0
+3.390554 +0.430112 0
+3.030651 +0.624087 0
+4.921567 +0.572111 0
+4.451910 +0.099433 0
+4.001617 +0.431598 0
+4.349349 +1.178588 0
+4.414170 +0.580737 0
+1.180328 -0.263992 0
+1.298883 +0.124636 0
+1.453015 -0.201530 0
+1.231365 -0.079594 0
-0.303492 -1.254895 0
-0.307767 -0.958980 0
-0.136347 -1.100928 0
-0.228957 -1.041890 0
-0.135004 +1.100095 0
-0.306728 +0.958557 0
-0.299966 +1.252172 0
-0.227592 +1.040986 0
+4.019004 -1.620454 0
+3.738196 -0.823209 0
+4.414957 -0.789006 0
+4.991905 -1.762067 0
+4.264534 -1.231246 0
+4.181121 -5.631350 0
+2.835662 -4.028273 0
+3.264821 -3.092691 0
+4.394268 -3.919251 0
+3.638288 -4.129376 0
+5.020362 +3.881249 0
+3.794168 +3.223639 0
+3.181510 +4.220771 0
+4.639066 +5.810290 0
+4.146397 +4.287240 0
-0.187475 -5.238218 0
-0.935646 -7.023751 0
-1.661614 -5.525604 0
-0.859998 -4.619511 0
-0.900804 -5.601820 0
-0.853545 +4.531557 0
-1.630829 +5.405392 0
-0.957850 +6.947099 0
-0.215530 +5.186431 0
-0.906252 +5.497528 0
+5.316134 -0.066987 0
+5.806471 +0.981009 0
+5.734979 +0.201927 0
+5.393378 +0.410412 0
-0.447453 +3.772538 0
-0.644883 +3.374205 0
-1.098059 +3.787497 0
-0.763190 +3.857700 0
-1.137255 -3.872982 0
-0.666582 -3.438918 0
-0.452561 -3.841020 0
-0.782847 -3.936858 0
+6.009116 -0.466319 0
+6.027444 -1.031558 0
+4.969450 -0.484582 0
+5.514418 -0.526745 0
+0.925814 +1.208169 0
+0.888315 +0.881586 0
+0.658297 +1.166556 0
+0.787873 +1.031074 0
+2.318574 +0.510585 0
+2.130195 +0.802648 0
+2.450836 +1.105982 0
+2.392707 +0.789106 0
+3.142032 -0.780949 0
+3.004494 -0.219552 0
+3.524108 -0.174196 0
+3.338584 -0.491245 0
-5.021344 +6.982780 0
-4.695564 +4.236235 0
-7.079102 +4.897827 0
-6.116191 +5.979434 0
-7.136310 -4.899616 0
-4.779506 -4.260561 0
-5.090515 -7.042854 0
-6.201399 -6.016693 0
-5.578720 -0.704943 0
-7.950879 -2.353950 0
-7.774221 -1.094829 0
-7.941166 +2.373219 0
-5.585721 +0.721421 0
-7.772047 +1.105659 0
+4.054162 -0.118415 0
+3.723338 +0.155911 0
+0.652009 -1.179497 0
+0.896785 -0.913763 0
+0.913256 -1.263459 0
+0.785488 -1.054157 0
+3.708064 +1.552501 0
+3.944175 +2.268443 0
+4.862561 +2.325496 0
+4.212910 +1.800636 0
+8.165806 +0.726606 0
+10.027909 +2.379721 0
+10.122200 +1.139207 0
+6.002599 -0.119077 0
+7.273988 -0.526209 0
+6.437443 -0.304748 0
-0.509854 +0.997527 0
-0.993795 +1.283032 0
-0.714986 +1.381970 0
-0.720240 +1.143390 0
-0.722684 -1.387410 0
-0.999051 -1.285241 0
-0.511328 -0.998107 0
-0.723292 -1.144893 0
+0.514509 -2.291421 0
+0.571190 -1.610454 0
+0.927995 -1.728051 0
+0.978770 -2.357744 0
+0.733401 -1.982849 0
+1.026837 +2.350754 0
+0.969570 +1.683447 0
+0.586353 +1.599329 0
+0.530064 +2.287255 0
+0.762349 +1.967491 0
+8.228196 -1.984653 0
+9.732844 -1.328730 0
+10.172368 -2.182324 0
+7.902504 +2.512137 0
+8.955000 +4.907624 0
+9.633879 +3.655140 0
+6.746676 +4.438446 0
+6.823195 +7.095137 0
+8.024572 +6.088208 0
+5.560793 -3.019144 0
+6.418134 -1.951619 0
+5.992859 -2.465470 0
+6.213960 +2.394285 0
+5.698404 +3.187941 0
-2.928910 -3.288788 0
-4.329247 -2.438232 0
-2.918378 -2.048905 0
-3.693817 -2.964939 0
-2.883413 +2.053212 0
-4.282613 +2.456156 0
-2.855538 +3.254547 0
-3.628261 +2.956659 0
+3.277144 -1.433667 0
+2.704214 -1.239726 0
+2.638941 -0.712799 0
+2.929602 -1.032284 0
-0.518669 -1.516514 0
-0.659342 -1.856634 0
-0.973868 -1.873702 0
-0.709076 -1.640507 0
-0.954484 +1.857918 0
-0.642999 +1.837478 0
-0.510027 +1.507627 0
-0.697091 +1.629467 0
+3.352538 -2.202094 0
+2.550122 -2.394383 0
+2.696342 -1.811742 0
+2.956889 -2.355514 0
+4.273695 -2.626645 0
+3.707687 -1.949323 0
+7.565610 -1.225000 0
+6.921215 -1.551037 0
+6.895200 +1.012702 0
+6.638553 +1.664179 0
-1.785832 -4.325817 0
-1.818852 -3.543601 0
-1.203213 -3.163499 0
-1.475684 -3.709894 0
-1.159649 +3.098961 0
-1.750534 +3.471356 0
-1.729519 +4.222532 0
-1.421785 +3.625194 0
+1.916627 +1.023823 0
+1.867315 +0.564468 0
+1.720162 +0.799684 0
+1.905701 +0.797461 0
+2.481706 +3.004778 0
+3.016256 +2.514775 0
+2.507028 +1.885633 0
+2.060953 +2.166745 0
+2.510276 +2.386967 0
+1.613573 +0.332074 0
+2.037557 +0.335771 0
+1.860978 +0.133298 0
+1.836594 +0.338163 0
+6.083171 -4.715049 0
+5.034537 -3.523986 0
+0.313395 -1.314088 0
+0.491008 -1.281442 0
+0.316944 +1.311137 0
+0.496306 +1.276668 0
+1.428629 -2.334611 0
+1.279415 -1.735157 0
+1.589829 -1.658060 0
+1.822877 -2.173469 0
+1.526868 -1.966486 0
+8.510517 -0.822451 0
+6.229789 +0.234247 0
+6.935173 +0.446912 0
+0.553536 -3.127574 0
+0.087193 -3.145110 0
+0.066994 -2.377875 0
+0.301147 -2.693686 0
+0.072221 +2.362338 0
+0.082405 +3.123447 0
+0.560103 +3.134835 0
+0.305825 +2.685347 0
-1.155995 -2.486642 0
-1.801478 -2.704100 0
-1.424861 -1.832483 0
-1.339355 -2.208899 0
-1.403876 +1.823084 0
-1.752049 +2.669805 0
-1.121035 +2.452046 0
-1.307429 +2.186624 0
+1.785213 +1.532503 0
+1.369240 +1.629843 0
+1.549085 +2.319403 0
+1.682281 +1.896047 0
+1.284733 -0.570078 0
+1.064527 -0.603775 0
+1.126989 -0.437374 0
+2.552652 -0.243415 0
+2.456323 +0.164793 0
+2.713125 -0.000061 0
-2.424589 +4.224835 0
-2.197155 +3.370156 0
-2.505432 -4.319447 0
-2.273686 -3.428501 0
-2.931696 +6.103933 0
-2.207779 +4.967302 0
-3.001800 -6.228293 0
-2.266990 -5.085213 0
-2.808462 +1.162020 0
-3.526744 +0.572262 0
-3.808255 +1.314884 0
-3.155912 +0.826947 0
-3.814152 -1.279022 0
-3.519894 -0.555572 0
-2.818115 -1.150680 0
-3.153200 -0.805886 0
+1.652642 -3.169699 0
+1.074545 -3.182628 0
+1.279581 -2.749364 0
+1.115574 +3.216509 0
+1.784126 +3.243408 0
+1.360786 +2.767243 0
+2.128192 +0.094713 0
+2.164766 -0.237770 0
+1.809204 -0.199038 0
+1.977111 -0.050010 0
+1.196019 +1.126076 0
+1.115626 +1.405442 0
+1.201927 +0.406069 0
+1.470047 +0.596525 0
+1.384623 +0.353908 0
+1.189311 -1.281856 0
+1.075765 -1.495948 0
-0.220679 -1.524889 0
-0.432446 -1.743048 0
-0.366599 -1.496416 0
-0.422246 +1.728136 0
-0.214780 +1.518726 0
-0.360441 +1.489194 0
-0.321992 -2.620584 0
-0.374243 -2.112205 0
-0.076416 -1.831911 0
-0.165605 -2.215524 0
-0.070948 +1.822220 0
-0.364146 +2.090498 0
-0.307415 +2.585092 0
-0.153334 +2.192421 0
+2.866808 +1.504513 0
+2.152096 +1.386622 0
+2.489083 +1.471817 0
+6.377366 -7.073226 0
+7.526003 -6.253766 0
+0.056385 -1.192522 0
-0.061594 -1.316344 0
-0.039927 -1.146472 0
-0.058632 +1.314972 0
+0.057807 +1.192796 0
-0.038879 +1.146224 0
+1.021349 +0.601821 0
+1.169672 +0.671137 0
+1.090129 +0.490439 0
-1.835023 +1.497679 0
-1.358460 +1.418890 0
-1.847705 -1.498128 0
-1.367492 -1.421259 0
+2.195830 -2.896852 0
+1.907494 -4.453227 0
+2.153084 -3.635362 0
+2.029363 +4.602403 0
+2.366196 +3.780455 0
+0.080735 -1.447374 0
-0.062442 -1.533490 0
+0.083681 +1.445315 0
-0.060444 +1.527240 0
+2.234527 +0.278325 0
-0.319324 -3.229199 0
-0.720273 -2.867252 0
-0.504445 -3.024493 0
-0.693261 +2.818573 0
-0.310202 +3.176755 0
-0.484430 +2.973313 0
+0.166145 +1.259366 0
+0.165295 -1.261446 0
+0.520412 -8.951568 0
-2.557116 -8.756148 0
-1.045905 -9.024437 0
-2.545571 +8.661678 0
+0.494771 +8.987053 0
-1.071621 +8.975432 0
-5.936326 -2.545368 0
-7.730842 -3.655542 0
-5.903323 +2.572135 0
-7.694918 +3.667666 0
+1.859294 -0.574803 0
+1.547590 -0.551604 0
+1.663251 -0.372835 0
+1.621201 -0.899720 0
+1.366572 -0.901073 0
+1.452360 -0.725857 0
+0.015497 -4.032554 0
-0.162002 -3.557695 0
-0.000232 +3.993526 0
-0.166121 +3.506407 0
+5.934481 +0.053350 0
-0.716989 -2.314013 0
-0.544251 -2.003806 0
-0.693889 +2.282365 0
-0.529003 +1.981606 0
+1.126328 -0.915476 0
+1.454634 -1.256104 0
+1.282432 -1.084258 0
+2.102489 -1.885274 0
+1.823686 -1.519689 0
+1.917751 -1.291072 0
+2.237167 -1.501683 0
+2.021251 -1.547240 0
+1.379161 +0.880867 0
+1.068699 +0.822903 0
+1.207754 +0.878028 0
+2.255893 -1.069539 0
+2.467866 -1.396988 0
+1.685914 -6.471071 0
+0.744698 -5.083692 0
+1.106243 -4.189579 0
+1.369603 -5.037024 0
+1.122778 +4.249906 0
+0.724308 +5.117550 0
+1.730615 +6.625158 0
+1.404648 +5.152396 0
+2.217304 -0.637586 0
+2.386136 -0.453590 0
-3.851666 +7.928489 0
-3.904732 -8.031081 0
-0.944496 -2.697435 0
-0.911203 +2.653474 0
+2.166292 -2.326150 0
+0.988885 -0.762983 0
+1.906913 -0.950469 0
+2.054919 -0.802410 0
+0.961513 +0.733233 0
+1.672389 +1.066345 0
+1.553008 +0.840483 0
+1.870924 +1.253719 0
+1.692702 -1.228112 0
+1.636385 -1.412675 0
+3.358541 +1.966754 0
+3.526251 +2.501004 0
+3.273880 +1.499654 0
+0.579924 -4.066655 0
+0.285171 -4.614564 0
+0.562218 +4.076673 0
+0.258342 +4.611164 0
-4.664794 -1.163129 0
-4.678168 -1.817862 0
-4.671187 +1.204052 0
-4.654209 +1.851738 0
+1.782112 -1.085463 0
+0.833183 -3.615750 0
+0.838845 +3.641229 0
-4.253552 +0.540756 0
-4.245370 -0.525766 0
+4.460058 -0.337259 0
-2.369112 -1.410712 0
+3.600905 -8.195026 0
+5.038787 -7.691840 0
+2.090915 -8.637972 0
-2.355975 +1.415215 0
-0.357074 +0.851399 0
-0.357554 -0.850979 0
+3.773955 +8.385208 0
+2.132556 +8.794175 0
+5.374341 +7.853655 0
+7.113246 -3.699439 0
+8.218052 -3.763784 0
+8.938452 -4.825803 0
+7.551418 -4.618674 0
+7.644164 -2.983761 0
+8.751239 -2.908317 0
+9.624916 -3.768243 0
+11.128000 -3.420297 0
+10.441819 -4.747709 0
+9.533962 -6.011316 0
+3.025114 +0.187247 0
+2.948420 +0.449597 0
+3.208856 +0.532141 0
+3.284300 +0.251561 0
+2.722542 +0.358217 0
+2.635497 +0.575635 0
+2.859532 +0.684226 0
+2.741144 +0.910179 0
+2.980527 +1.072029 0
+3.101258 +0.824651 0
+3.438242 +0.987714 0
+3.538119 +0.665192 0
+5.025314 +0.976406 0
+4.668979 +0.581283 0
+4.377880 +0.871028 0
+4.746535 +1.319443 0
+4.874846 +0.290503 0
+4.665611 +0.060633 0
+4.422919 +0.336199 0
+4.308107 +0.118985 0
+4.080726 +0.284758 0
+4.203780 +0.506950 0
+3.853995 +0.677309 0
+4.012336 +1.049282 0
+1.267414 -0.323743 0
+1.208077 -0.173573 0
+1.337340 -0.135345 0
+1.409132 -0.299789 0
+1.093878 -0.211512 0
+1.122483 -0.035700 0
+1.147054 +0.149897 0
+1.267172 +0.019332 0
+1.440826 +0.087773 0
+1.527019 -0.087058 0
-0.242927 -1.278115 0
-0.263339 -1.141666 0
-0.184794 -1.073613 0
-0.156219 -1.192269 0
-0.386856 -1.238380 0
-0.377919 -1.075001 0
-0.271149 -1.002036 0
-0.256828 -0.874003 0
-0.193452 -0.952195 0
-0.114836 -1.016828 0
-0.154215 +1.190497 0
-0.183443 +1.072742 0
-0.261021 +1.139950 0
-0.239745 +1.275257 0
-0.114234 +1.016447 0
-0.192852 +0.951782 0
-0.256375 +0.873799 0
-0.269941 +1.001393 0
-0.375830 +1.073854 0
-0.383297 +1.236002 0
+4.317731 -1.907026 0
+4.147561 -1.427897 0
+4.597325 -1.485788 0
+4.843530 -2.000342 0
+3.757437 -1.374427 0
+3.635230 -0.989045 0
+3.985056 -1.020321 0
+3.824465 -0.645377 0
+4.151287 -0.625941 0
+4.341557 -1.007373 0
+4.810297 -0.992330 0
+5.146789 -1.472968 0
+4.714882 -5.498505 0
+3.894173 -4.809394 0
+4.022267 -4.052617 0
+4.772110 -4.534007 0
+3.497771 -5.717560 0
+2.861722 -4.774884 0
+3.227217 -4.103134 0
+2.778642 -3.521802 0
+2.983376 -3.099078 0
+3.443188 -3.570053 0
+3.533892 -3.025791 0
+4.073296 -3.383621 0
+5.393074 +4.509743 0
+4.601431 +4.124054 0
+4.385222 +4.981846 0
+5.259178 +5.597918 0
+4.690781 +3.357865 0
+4.109361 +3.087470 0
+3.965624 +3.716472 0
+3.449378 +3.247275 0
+3.158375 +3.698339 0
+3.653769 +4.288346 0
+3.166126 +4.994601 0
+3.847938 +5.942542 0
-0.294932 -4.808255 0
-0.529097 -5.441659 0
-0.884881 -5.078739 0
-0.610637 -4.530556 0
+0.044652 -5.844481 0
-0.252904 -6.833207 0
-0.926335 -6.257998 0
-1.506612 -7.005896 0
-1.847066 -6.145727 0
-1.285774 -5.597381 0
-1.503016 -5.015085 0
-1.113831 -4.611821 0
-0.613295 +4.452924 0
-0.883558 +4.982886 0
-0.548343 +5.363797 0
-0.313478 +4.747381 0
-1.095677 +4.516570 0
-1.472089 +4.905457 0
-1.273741 +5.482907 0
-1.819967 +6.026088 0
-1.508957 +6.906328 0
-0.939526 +6.164300 0
-0.286183 +6.813265 0
+0.012361 +5.827946 0
+5.522149 -0.107288 0
+5.320076 +0.166565 0
+5.579706 +0.301588 0
+5.680826 +0.034208 0
+5.101797 -0.025656 0
+5.167944 +0.494391 0
+5.527268 +1.227453 0
+5.558586 +0.678506 0
+5.985271 +0.774228 0
+5.879421 +0.377588 0
-0.421396 +4.048874 0
-0.603305 +3.821806 0
-0.807782 +4.175712 0
-0.458840 +3.599283 0
-0.557279 +3.408115 0
-0.701223 +3.604474 0
-0.772710 +3.322471 0
-0.989535 +3.508818 0
-0.933156 +3.831985 0
-1.208111 +4.108251 0
-0.821628 -4.259302 0
-0.615339 -3.896007 0
-0.419520 -4.117099 0
-1.243716 -4.200729 0
-0.962461 -3.915121 0
-1.025413 -3.583556 0
-0.800109 -3.388067 0
-0.722067 -3.675946 0
-0.575544 -3.473956 0
-0.469043 -3.666993 0
+5.816749 -0.293234 0
+5.770062 -0.510413 0
+5.381032 -0.291808 0
+6.280156 -0.639246 0
+6.345199 -0.952515 0