# vtk DataFile Version 2.0
MyTitle
ASCII
DATASET UNSTRUCTURED_GRID
POINTS 1311 double
-10.000000 0.000000 0.000000
-6.000000 0.000000 0.000000
-4.000000 0.000000 0.000000
0.000000 0.000000 0.000000
4.000000 0.000000 0.000000
6.000000 0.000000 0.000000
10.000000 0.000000 0.000000
-10.000000 5.000000 0.000000
-5.000000 5.000000 0.000000
5.000000 5.000000 0.000000
0.000000 5.000000 0.000000
10.000000 5.000000 0.000000
-5.000000 1.000000 0.000000
5.000000 1.000000 0.000000
-5.707000 0.707000 0.000000
-4.293000 0.707000 0.000000
4.293000 0.707000 0.000000
5.707000 0.707000 0.000000
0.400000 0.000000 0.000000
0.800000 0.000000 0.000000
1.200000 0.000000 0.000000
1.600000 0.000000 0.000000
2.000000 0.000000 0.000000
2.400000 0.000000 0.000000
2.800000 0.000000 0.000000
3.200000 0.000000 0.000000
3.600000 0.000000 0.000000
0.200000 0.000000 0.000000
0.600000 0.000000 0.000000
1.000000 0.000000 0.000000
1.400000 0.000000 0.000000
1.800000 0.000000 0.000000
2.200000 0.000000 0.000000
2.600000 0.000000 0.000000
3.000000 0.000000 0.000000
3.400000 0.000000 0.000000
3.800000 0.000000 0.000000
6.400000 0.000000 0.000000
6.800000 0.000000 0.000000
7.200000 0.000000 0.000000
7.600000 0.000000 0.000000
8.000000 0.000000 0.000000
8.400000 0.000000 0.000000
8.800000 0.000000 0.000000
9.200000 0.000000 0.000000
9.600000 0.000000 0.000000
6.200000 0.000000 0.000000
6.600000 0.000000 0.000000
7.000000 0.000000 0.000000
7.400000 0.000000 0.000000
7.800000 0.000000 0.000000
8.200000 0.000000 0.000000
8.600000 0.000000 0.000000
9.000000 0.000000 0.000000
9.400000 0.000000 0.000000
9.800000 0.000000 0.000000
10.000000 1.000000 0.000000
10.000000 2.000000 0.000000
10.000000 3.000000 0.000000
10.000000 4.000000 0.000000
10.000000 0.500000 0.000000
10.000000 1.500000 0.000000
10.000000 2.500000 0.000000
10.000000 3.500000 0.000000
10.000000 4.500000 0.000000
9.000000 5.000000 0.000000
8.000000 5.000000 0.000000
7.000000 5.000000 0.000000
6.000000 5.000000 0.000000
9.500000 5.000000 0.000000
8.500000 5.000000 0.000000
7.500000 5.000000 0.000000
6.500000 5.000000 0.000000
5.500000 5.000000 0.000000
5.000000 4.600000 0.000000
5.000000 4.200000 0.000000
5.000000 3.800000 0.000000
5.000000 3.400000 0.000000
5.000000 3.000000 0.000000
5.000000 2.600000 0.000000
5.000000 2.200000 0.000000
5.000000 1.800000 0.000000
5.000000 1.400000 0.000000
5.000000 4.800000 0.000000
5.000000 4.400000 0.000000
5.000000 4.000000 0.000000
5.000000 3.600000 0.000000
5.000000 3.200000 0.000000
5.000000 2.800000 0.000000
5.000000 2.400000 0.000000
5.000000 2.000000 0.000000
5.000000 1.600000 0.000000
5.000000 1.200000 0.000000
4.000000 5.000000 0.000000
3.000000 5.000000 0.000000
2.000000 5.000000 0.000000
1.000000 5.000000 0.000000
4.500000 5.000000 0.000000
3.500000 5.000000 0.000000
2.500000 5.000000 0.000000
1.500000 5.000000 0.000000
0.500000 5.000000 0.000000
0.000000 4.000000 0.000000
0.000000 3.000000 0.000000
0.000000 2.000000 0.000000
0.000000 1.000000 0.000000
0.000000 4.500000 0.000000
0.000000 3.500000 0.000000
0.000000 2.500000 0.000000
0.000000 1.500000 0.000000
0.000000 0.500000 0.000000
-1.000000 5.000000 0.000000
-2.000000 5.000000 0.000000
-3.000000 5.000000 0.000000
-4.000000 5.000000 0.000000
-0.500000 5.000000 0.000000
-1.500000 5.000000 0.000000
-2.500000 5.000000 0.000000
-3.500000 5.000000 0.000000
-4.500000 5.000000 0.000000
-5.000000 4.600000 0.000000
-5.000000 4.200000 0.000000
-5.000000 3.800000 0.000000
-5.000000 3.400000 0.000000
-5.000000 3.000000 0.000000
-5.000000 2.600000 0.000000
-5.000000 2.200000 0.000000
-5.000000 1.800000 0.000000
-5.000000 1.400000 0.000000
-5.000000 4.800000 0.000000
-5.000000 4.400000 0.000000
-5.000000 4.000000 0.000000
-5.000000 3.600000 0.000000
-5.000000 3.200000 0.000000
-5.000000 2.800000 0.000000
-5.000000 2.400000 0.000000
-5.000000 2.000000 0.000000
-5.000000 1.600000 0.000000
-5.000000 1.200000 0.000000
-6.000000 5.000000 0.000000
-7.000000 5.000000 0.000000
-8.000000 5.000000 0.000000
-9.000000 5.000000 0.000000
-5.500000 5.000000 0.000000
-6.500000 5.000000 0.000000
-7.500000 5.000000 0.000000
-8.500000 5.000000 0.000000
-9.500000 5.000000 0.000000
-10.000000 4.000000 0.000000
-10.000000 3.000000 0.000000
-10.000000 2.000000 0.000000
-10.000000 1.000000 0.000000
-10.000000 4.500000 0.000000
-10.000000 3.500000 0.000000
-10.000000 2.500000 0.000000
-10.000000 1.500000 0.000000
-10.000000 0.500000 0.000000
-9.600000 0.000000 0.000000
-9.200000 0.000000 0.000000
-8.800000 0.000000 0.000000
-8.400000 0.000000 0.000000
-8.000000 0.000000 0.000000
-7.600000 0.000000 0.000000
-7.200000 0.000000 0.000000
-6.800000 0.000000 0.000000
-6.400000 0.000000 0.000000
-9.800000 0.000000 0.000000
-9.400000 0.000000 0.000000
-9.000000 0.000000 0.000000
-8.600000 0.000000 0.000000
-8.200000 0.000000 0.000000
-7.800000 0.000000 0.000000
-7.400000 0.000000 0.000000
-7.000000 0.000000 0.000000
-6.600000 0.000000 0.000000
-6.200000 0.000000 0.000000
-3.600000 0.000000 0.000000
-3.200000 0.000000 0.000000
-2.800000 0.000000 0.000000
-2.400000 0.000000 0.000000
-2.000000 0.000000 0.000000
-1.600000 0.000000 0.000000
-1.200000 0.000000 0.000000
-0.800000 0.000000 0.000000
-0.400000 0.000000 0.000000
-3.800000 0.000000 0.000000
-3.400000 0.000000 0.000000
-3.000000 0.000000 0.000000
-2.600000 0.000000 0.000000
-2.200000 0.000000 0.000000
-1.800000 0.000000 0.000000
-1.400000 0.000000 0.000000
-1.000000 0.000000 0.000000
-0.600000 0.000000 0.000000
-0.200000 0.000000 0.000000
-5.987688 0.156434 0.000000
-5.951057 0.309017 0.000000
-5.891007 0.453990 0.000000
-5.809017 0.587785 0.000000
-5.996917 0.078459 0.000000
-5.972370 0.233445 0.000000
-5.923880 0.382683 0.000000
-5.852640 0.522499 0.000000
-5.760406 0.649448 0.000000
-5.587696 0.808895 0.000000
-5.453922 0.890872 0.000000
-5.308970 0.950913 0.000000
-5.156411 0.987539 0.000000
-5.649350 0.760291 0.000000
-5.522420 0.852511 0.000000
-5.382626 0.923740 0.000000
-5.233410 0.972223 0.000000
-5.078447 0.996767 0.000000
-4.843566 0.987688 0.000000
-4.690983 0.951057 0.000000
-4.546010 0.891007 0.000000
-4.412215 0.809017 0.000000
-4.921541 0.996917 0.000000
-4.766555 0.972370 0.000000
-4.617317 0.923880 0.000000
-4.477501 0.852640 0.000000
-4.350552 0.760406 0.000000
-4.191105 0.587696 0.000000
-4.109128 0.453922 0.000000
-4.049087 0.308970 0.000000
-4.012461 0.156411 0.000000
-4.239709 0.649350 0.000000
-4.147489 0.522420 0.000000
-4.076260 0.382626 0.000000
-4.027777 0.233410 0.000000
-4.003233 0.078447 0.000000
4.012312 0.156434 0.000000
4.048943 0.309017 0.000000
4.108993 0.453990 0.000000
4.190983 0.587785 0.000000
4.003083 0.078459 0.000000
4.027630 0.233445 0.000000
4.076120 0.382683 0.000000
4.147360 0.522499 0.000000
4.239594 0.649448 0.000000
4.412304 0.808895 0.000000
4.546078 0.890872 0.000000
4.691030 0.950913 0.000000
4.843589 0.987539 0.000000
4.350650 0.760291 0.000000
4.477580 0.852511 0.000000
4.617374 0.923740 0.000000
4.766590 0.972223 0.000000
4.921553 0.996767 0.000000
5.156434 0.987688 0.000000
5.309017 0.951057 0.000000
5.453990 0.891007 0.000000
5.587785 0.809017 0.000000
5.078459 0.996917 0.000000
5.233445 0.972370 0.000000
5.382683 0.923880 0.000000
5.522499 0.852640 0.000000
5.649448 0.760406 0.000000
5.808895 0.587696 0.000000
5.890872 0.453922 0.000000
5.950913 0.308970 0.000000
5.987539 0.156411 0.000000
5.760291 0.649350 0.000000
5.852511 0.522420 0.000000
5.923740 0.382626 0.000000
5.972223 0.233410 0.000000
5.996767 0.078447 0.000000
-6.136300 1.136300 0.000000
-6.565600 1.565600 0.000000
-6.994900 1.994900 0.000000
-7.424200 2.424200 0.000000
-7.853500 2.853500 0.000000
-8.282800 3.282800 0.000000
-8.712100 3.712100 0.000000
-9.141400 4.141400 0.000000
-9.570700 4.570700 0.000000
-5.921650 0.921650 0.000000
-6.350950 1.350950 0.000000
-6.780250 1.780250 0.000000
-7.209550 2.209550 0.000000
-7.638850 2.638850 0.000000
-8.068150 3.068150 0.000000
-8.497450 3.497450 0.000000
-8.926750 3.926750 0.000000
-9.356050 4.356050 0.000000
-9.785350 4.785350 0.000000
-3.863700 1.136300 0.000000
-3.434400 1.565600 0.000000
-3.005100 1.994900 0.000000
-2.575800 2.424200 0.000000
-2.146500 2.853500 0.000000
-1.717200 3.282800 0.000000
-1.287900 3.712100 0.000000
-0.858600 4.141400 0.000000
-0.429300 4.570700 0.000000
-4.078350 0.921650 0.000000
-3.649050 1.350950 0.000000
-3.219750 1.780250 0.000000
-2.790450 2.209550 0.000000
-2.361150 2.638850 0.000000
-1.931850 3.068150 0.000000
-1.502550 3.497450 0.000000
-1.073250 3.926750 0.000000
-0.643950 4.356050 0.000000
-0.214650 4.785350 0.000000
3.863700 1.136300 0.000000
3.434400 1.565600 0.000000
3.005100 1.994900 0.000000
2.575800 2.424200 0.000000
2.146500 2.853500 0.000000
1.717200 3.282800 0.000000
1.287900 3.712100 0.000000
0.858600 4.141400 0.000000
0.429300 4.570700 0.000000
4.078350 0.921650 0.000000
3.649050 1.350950 0.000000
3.219750 1.780250 0.000000
2.790450 2.209550 0.000000
2.361150 2.638850 0.000000
1.931850 3.068150 0.000000
1.502550 3.497450 0.000000
1.073250 3.926750 0.000000
0.643950 4.356050 0.000000
0.214650 4.785350 0.000000
6.136300 1.136300 0.000000
6.565600 1.565600 0.000000
6.994900 1.994900 0.000000
7.424200 2.424200 0.000000
7.853500 2.853500 0.000000
8.282800 3.282800 0.000000
8.712100 3.712100 0.000000
9.141400 4.141400 0.000000
9.570700 4.570700 0.000000
5.921650 0.921650 0.000000
6.350950 1.350950 0.000000
6.780250 1.780250 0.000000
7.209550 2.209550 0.000000
7.638850 2.638850 0.000000
8.068150 3.068150 0.000000
8.497450 3.497450 0.000000
8.926750 3.926750 0.000000
9.356050 4.356050 0.000000
9.785350 4.785350 0.000000
-9.580902 3.658779 0.000000
-9.161803 3.317557 0.000000
-8.742705 2.976336 0.000000
-8.323607 2.635114 0.000000
-7.904508 2.293893 0.000000
-7.485410 1.952671 0.000000
-7.066312 1.611450 0.000000
-6.647214 1.270228 0.000000
-6.228115 0.929007 0.000000
-9.589101 2.745399 0.000000
-9.178201 2.490798 0.000000
-8.767302 2.236197 0.000000
-8.356403 1.981596 0.000000
-7.945503 1.726995 0.000000
-7.534604 1.472394 0.000000
-7.123705 1.217793 0.000000
[...]
POINT_DATA 1311
VECTORS sol double
+0.000000 +0.000000 0
+10.000000 +10.000000 0
+10.000000 +10.000000 0
+5.874703 +5.874703 0
-10.000000 -10.000000 0
-10.000000 -10.000000 0
+0.000000 +0.000000 0
+0.000000 +0.000000 0
+0.000000 +0.000000 0
+0.000000 +0.000000 0
+0.000000 +0.000000 0
+0.000000 +0.000000 0
+10.000000 +10.000000 0
-10.000000 -10.000000 0
+10.000000 +10.000000 0
+10.000000 +10.000000 0
-10.000000 -10.000000 0
-10.000000 -10.000000 0
-0.828055 -0.828055 0
-1.236702 -1.236702 0
-1.933256 -1.933256 0
-2.643352 -2.643352 0
-3.423569 -3.423569 0
-4.297581 -4.297581 0
-5.304583 -5.304583 0
-6.504797 -6.504797 0
-8.000180 -8.000180 0
+2.493127 +2.493127 0
-1.034185 -1.034185 0
-1.580843 -1.580843 0
-2.281508 -2.281508 0
-3.023684 -3.023684 0
-3.846821 -3.846821 0
-4.781491 -4.781491 0
-5.875713 -5.875713 0
-7.206487 -7.206487 0
-8.918671 -8.918671 0
-8.012964 -8.012964 0
-6.500085 -6.500085 0
-5.298570 -5.298570 0
-4.299109 -4.299109 0
-3.427724 -3.427724 0
-2.645529 -2.645529 0
-1.929563 -1.929563 0
-1.261010 -1.261010 0
-0.622953 -0.622953 0
-8.930832 -8.930832 0
-7.210270 -7.210270 0
-5.868442 -5.868442 0
-4.779236 -4.779236 0
-3.850191 -3.850191 0
-3.027273 -3.027273 0
-2.280761 -2.280761 0
-1.590515 -1.590515 0
-0.939445 -0.939445 0
-0.310884 -0.310884 0
+0.000000 +0.000000 0
+0.000000 +0.000000 0
+0.000000 +0.000000 0
+0.000000 +0.000000 0
+0.000000 +0.000000 0
+0.000000 +0.000000 0
+0.000000 +0.000000 0
+0.000000 +0.000000 0
+0.000000 +0.000000 0
+0.000000 +0.000000 0
+0.000000 +0.000000 0
+0.000000 +0.000000 0
+0.000000 +0.000000 0
+0.000000 +0.000000 0
+0.000000 +0.000000 0
+0.000000 +0.000000 0
+0.000000 +0.000000 0
+0.000000 +0.000000 0
-0.623740 -0.623740 0
-1.262086 -1.262086 0
-1.930073 -1.930073 0
-2.644686 -2.644686 0
-3.425760 -3.425760 0
-4.298488 -4.298488 0
-5.301679 -5.301679 0
-6.502500 -6.502500 0
-8.006587 -8.006587 0
-0.311278 -0.311278 0
-0.940427 -0.940427 0
-1.591472 -1.591472 0
-2.280590 -2.280590 0
-3.025673 -3.025673 0
-3.848642 -3.848642 0
-4.780489 -4.780489 0
-5.872159 -5.872159 0
-7.208415 -7.208415 0
-8.924751 -8.924751 0
+0.000000 +0.000000 0
+0.000000 +0.000000 0
+0.000000 +0.000000 0
+0.000000 +0.000000 0
+0.000000 +0.000000 0
+0.000000 +0.000000 0
+0.000000 +0.000000 0
+0.000000 +0.000000 0
+0.000000 +0.000000 0
+0.001597 +0.001597 0
+0.087122 +0.087122 0
+0.937714 +0.937714 0
+3.954866 +3.954866 0
+0.000181 +0.000181 0
-0.000103 -0.000103 0
-0.103353 -0.103353 0
-1.054629 -1.054629 0
-2.797449 -2.797449 0
+0.000000 +0.000000 0
+0.000000 +0.000000 0
+0.000000 +0.000000 0
+0.000000 +0.000000 0
+0.000000 +0.000000 0
+0.000000 +0.000000 0
+0.000000 +0.000000 0
+0.000000 +0.000000 0
+0.000000 +0.000000 0
+5.280364 +5.280364 0
-7.221670 -7.221670 0
-3.344639 -3.344639 0
+7.337349 +7.337349 0
-14.649021 -14.649021 0
+5.102883 +5.102883 0
-4.195284 -4.195284 0
+4.896907 +4.896907 0
+2.575166 +2.575166 0
+3.083016 +3.083016 0
-0.979381 -0.979381 0
-6.010374 -6.010374 0
+3.091240 +3.091240 0
-4.103652 -4.103652 0
-6.026749 -6.026749 0
+3.408802 +3.408802 0
-6.013416 -6.013416 0
+5.948991 +5.948991 0
+7.480368 +7.480368 0
+0.000000 +0.000000 0
+0.000000 +0.000000 0
+0.000000 +0.000000 0
+0.000000 +0.000000 0
+0.000000 +0.000000 0
+0.000000 +0.000000 0
+0.000000 +0.000000 0
+0.000000 +0.000000 0
+0.000000 +0.000000 0
+0.000000 +0.000000 0
+0.000000 +0.000000 0
+0.000000 +0.000000 0
+0.000000 +0.000000 0
+0.000000 +0.000000 0
+0.000000 +0.000000 0
+0.000000 +0.000000 0
+0.000000 +0.000000 0
+0.000000 +0.000000 0
-0.627138 -0.627138 0
-1.264536 -1.264536 0
-1.897137 -1.897137 0
-2.472725 -2.472725 0
-2.824158 -2.824158 0
-2.606176 -2.606176 0
-1.328164 -1.328164 0
+1.369814 +1.369814 0
+5.309598 +5.309598 0
-0.318747 -0.318747 0
-0.938758 -0.938758 0
-1.582608 -1.582608 0
-2.200890 -2.200890 0
-2.696762 -2.696762 0
-2.809987 -2.809987 0
-2.121419 -2.121419 0
-0.157492 -0.157492 0
+3.214907 +3.214907 0
+7.546583 +7.546583 0
+5.307572 +5.307572 0
+1.368894 +1.368894 0
-1.328259 -1.328259 0
-2.606432 -2.606432 0
-2.824300 -2.824300 0
-2.472323 -2.472323 0
-1.900020 -1.900020 0
-1.238157 -1.238157 0
-0.830712 -0.830712 0
+7.544799 +7.544799 0
+3.213415 +3.213415 0
-0.157942 -0.157942 0
-2.121834 -2.121834 0
-2.809844 -2.809844 0
-2.696844 -2.696844 0
-2.202026 -2.202026 0
-1.571165 -1.571165 0
-1.031623 -1.031623 0
+2.486047 +2.486047 0
+10.000000 +10.000000 0
+10.000000 +10.000000 0
+10.000000 +10.000000 0
+10.000000 +10.000000 0
+10.000000 +10.000000 0
+10.000000 +10.000000 0
+10.000000 +10.000000 0
+10.000000 +10.000000 0
+10.000000 +10.000000 0
+10.000000 +10.000000 0
+10.000000 +10.000000 0
+10.000000 +10.000000 0
+10.000000 +10.000000 0
+10.000000 +10.000000 0
+10.000000 +10.000000 0
+10.000000 +10.000000 0
+10.000000 +10.000000 0
+10.000000 +10.000000 0
+10.000000 +10.000000 0
+10.000000 +10.000000 0
+10.000000 +10.000000 0
+10.000000 +10.000000 0
+10.000000 +10.000000 0
+10.000000 +10.000000 0
+10.000000 +10.000000 0
+10.000000 +10.000000 0
+10.000000 +10.000000 0
+10.000000 +10.000000 0
+10.000000 +10.000000 0
+10.000000 +10.000000 0
+10.000000 +10.000000 0
+10.000000 +10.000000 0
+10.000000 +10.000000 0
+10.000000 +10.000000 0
+10.000000 +10.000000 0
+10.000000 +10.000000 0
-10.000000 -10.000000 0
-10.000000 -10.000000 0
-10.000000 -10.000000 0
-10.000000 -10.000000 0
-10.000000 -10.000000 0
-10.000000 -10.000000 0
-10.000000 -10.000000 0
-10.000000 -10.000000 0
-10.000000 -10.000000 0
-10.000000 -10.000000 0
-10.000000 -10.000000 0
-10.000000 -10.000000 0
-10.000000 -10.000000 0
-10.000000 -10.000000 0
-10.000000 -10.000000 0
-10.000000 -10.000000 0
-10.000000 -10.000000 0
-10.000000 -10.000000 0
-10.000000 -10.000000 0
-10.000000 -10.000000 0
-10.000000 -10.000000 0
-10.000000 -10.000000 0
-10.000000 -10.000000 0
-10.000000 -10.000000 0
-10.000000 -10.000000 0
-10.000000 -10.000000 0
-10.000000 -10.000000 0
-10.000000 -10.000000 0
-10.000000 -10.000000 0
-10.000000 -10.000000 0
-10.000000 -10.000000 0
-10.000000 -10.000000 0
-10.000000 -10.000000 0
-10.000000 -10.000000 0
-10.000000 -10.000000 0
-10.000000 -10.000000 0
+14.735939 +14.735939 0
-23.037715 -23.037715 0
-44.961737 -44.961737 0
+20.461179 +20.461179 0
+16.484688 +16.484688 0
-19.334270 -19.334270 0
-18.947701 -18.947701 0
+29.589752 +29.589752 0
+91.896001 +91.896001 0
+14.904398 +14.904398 0
+3.034425 +3.034425 0
-40.004746 -40.004746 0
-26.848381 -26.848381 0
+39.870940 +39.870940 0
-4.783551 -4.783551 0
-27.770698 -27.770698 0
+1.765695 +1.765695 0
+60.534541 +60.534541 0
+78.048929 +78.048929 0
+15.134692 +15.134692 0
-20.786245 -20.786245 0
-51.588908 -51.588908 0
+31.270322 +31.270322 0
+5.571099 +5.571099 0
-21.651574 -21.651574 0
+11.691674 +11.691674 0
-0.256843 -0.256843 0
-2.022702 -2.022702 0
+14.997538 +14.997538 0
+1.836414 +1.836414 0
-38.268505 -38.268505 0
-29.165828 -29.165828 0
+45.482928 +45.482928 0
-17.366387 -17.366387 0
-13.804216 -13.804216 0
+14.090183 +14.090183 0
-7.225964 -7.225964 0
+1.754167 +1.754167 0
-7.191357 -7.191357 0
-5.301120 -5.301120 0
-3.889999 -3.889999 0
-2.785258 -2.785258 0
-1.905527 -1.905527 0
-1.209648 -1.209648 0
-0.677795 -0.677795 0
-0.300843 -0.300843 0
-0.075106 -0.075106 0
-8.429919 -8.429919 0
-6.167237 -6.167237 0
-4.548972 -4.548972 0
-3.305401 -3.305401 0
-2.320303 -2.320303 0
-1.536035 -1.536035 0
-0.924090 -0.924090 0
-0.470260 -0.470260 0
-0.169184 -0.169184 0
-0.018827 -0.018827 0
-6.528488 -6.528488 0
-4.414405 -4.414405 0
-6.603514 -6.603514 0
-0.846322 -0.846322 0
-1.218762 -1.218762 0
-1.948352 -1.948352 0
-1.268235 -1.268235 0
-0.594764 -0.594764 0
-0.266365 -0.266365 0
-9.982852 -9.982852 0
-4.718733 -4.718733 0
-4.929256 -4.929256 0
-5.549152 -5.549152 0
+0.973070 +0.973070 0
-2.368440 -2.368440 0
-1.603667 -1.603667 0
-0.915538 -0.915538 0
-0.360943 -0.360943 0
-0.165114 -0.165114 0
+6.912074 +6.912074 0
-2.098920 -2.098920 0
-6.828170 -6.828170 0
+0.928454 +0.928454 0
+8.515204 +8.515204 0
-11.013124 -11.013124 0
-22.893305 -22.893305 0
-7.891090 -7.891090 0
+9.000144 +9.000144 0
-0.449498 -0.449498 0
-1.350770 -1.350770 0
-0.720618 -0.720618 0
-0.308219 -0.308219 0
-3.505912 -3.505912 0
-9.658320 -9.658320 0
-10.811784 -10.811784 0
-2.643861 -2.643861 0
+6.470986 +6.470986 0
-0.507342 -0.507342 0
-0.972947 -0.972947 0
-1.548390 -1.548390 0
-2.659870 -2.659870 0
-4.523923 -4.523923 0
-5.954705 -5.954705 0
-4.753343 -4.753343 0
-0.143962 -0.143962 0
+5.564886 +5.564886 0
-0.587347 -0.587347 0
-1.218200 -1.218200 0
-1.933212 -1.933212 0
-2.716325 -2.716325 0
-3.378386 -3.378386 0
-3.415818 -3.415818 0
-2.088302 -2.088302 0
+1.017507 +1.017507 0
+5.336237 +5.336237 0
+4.431771 +4.431771 0
+25.636536 +25.636536 0
+3.623961 +3.623961 0
+4.658885 +4.658885 0
-5.795491 -5.795491 0
-13.355163 -13.355163 0
-3.104189 -3.104189 0
-4.503865 -4.503865 0
+6.768458 +6.768458 0
+17.030180 +17.030180 0
-0.148371 -0.148371 0
-4.542500 -4.542500 0
-19.008252 -19.008252 0
-31.023455 -31.023455 0
-18.269875 -18.269875 0
-13.930894 -13.930894 0
+2.138363 +2.138363 0
+11.057137 +11.057137 0
+10.885263 +10.885263 0
+0.024853 +0.024853 0
+0.782495 +0.782495 0
-1.312507 -1.312507 0
-2.762858 -2.762858 0
-1.141410 -1.141410 0
-2.123715 -2.123715 0
-0.290641 -0.290641 0
+1.864283 +1.864283 0
-1.229612 -1.229612 0
+0.031274 +0.031274 0
-6.838304 -6.838304 0
-11.387152 -11.387152 0
-11.332392 -11.332392 0
-15.710241 -15.710241 0
-7.427478 -7.427478 0
-4.585051 -4.585051 0
+2.355765 +2.355765 0
+7.373362 +7.373362 0
+8.775114 +8.775114 0
-0.309437 -0.309437 0
-0.627488 -0.627488 0
-0.663925 -0.663925 0
-0.855733 -0.855733 0
-1.195532 -1.195532 0
-0.975880 -0.975880 0
-2.005654 -2.005654 0
-1.881689 -1.881689 0
-3.606697 -3.606697 0
-4.730236 -4.730236 0
-5.409986 -5.409986 0
-7.785831 -7.785831 0
-5.751691 -5.751691 0
-7.118007 -7.118007 0
-2.775548 -2.775548 0
-1.122811 -1.122811 0
+2.751346 +2.751346 0
+5.875297 +5.875297 0
+7.888586 +7.888586 0
-0.277270 -0.277270 0
-0.525620 -0.525620 0
-0.911291 -0.911291 0
-1.121721 -1.121721 0
-1.571294 -1.571294 0
-1.851375 -1.851375 0
-2.329717 -2.329717 0
-2.861167 -2.861167 0
-3.083684 -3.083684 0
-3.979467 -3.979467 0
-3.520148 -3.520148 0
-4.455039 -4.455039 0
-2.951761 -2.951761 0
-3.089649 -3.089649 0
-0.738291 -0.738291 0
+0.584534 +0.584534 0
+3.084545 +3.084545 0
+5.415017 +5.415017 0
+7.602926 +7.602926 0
-0.620877 -0.620877 0
-1.259079 -1.259079 0
-1.920249 -1.920249 0
-2.549936 -2.549936 0
-2.970087 -2.970087 0
-2.796258 -2.796258 0
-1.493625 -1.493625 0
+1.304340 +1.304340 0
+5.334663 +5.334663 0
+9.003818 +9.003818 0
+6.468596 +6.468596 0
+5.591842 +5.591842 0
+5.543233 +5.543233 0
-7.885354 -7.885354 0
-2.654481 -2.654481 0
-0.078532 -0.078532 0
+0.629960 +0.629960 0
-22.893120 -22.893120 0
-10.808667 -10.808667 0
-4.744831 -4.744831 0
-2.429120 -2.429120 0
-11.017388 -11.017388 0
-9.659051 -9.659051 0
-5.948209 -5.948209 0
-2.826855 -2.826855 0
+8.514955 +8.514955 0
-3.508893 -3.508893 0
-4.546098 -4.546098 0
-4.084538 -4.084538 0
+0.929485 +0.929485 0
-0.305993 -0.305993 0
-2.641915 -2.641915 0
-2.218662 -2.218662 0
-6.827948 -6.827948 0
-0.720894 -0.720894 0
-1.545720 -1.545720 0
-1.927830 -1.927830 0
-2.099459 -2.099459 0
-1.351725 -1.351725 0
-0.991650 -0.991650 0
-1.581463 -1.581463 0
+6.911667 +6.911667 0
-0.448044 -0.448044 0
-0.497563 -0.497563 0
-0.293963 -0.293963 0
+11.058959 +11.058959 0
+10.884925 +10.884925 0
+7.373707 +7.373707 0
+8.775026 +8.775026 0
+5.889541 +5.889541 0
+7.872947 +7.872947 0
+5.504808 +5.504808 0
+7.376075 +7.376075 0
+4.431738 +4.431738 0
-13.926778 -13.926778 0
+2.141742 +2.141742 0
-4.586709 -4.586709 0
+2.364061 +2.364061 0
-1.101976 -1.101976 0
+2.746896 +2.746896 0
+0.438901 +0.438901 0
+3.240664 +3.240664 0
+2.089589 +2.089589 0
-31.024299 -31.024299 0
-18.266863 -18.266863 0
-15.709504 -15.709504 0
-7.422005 -7.422005 0
-7.104397 -7.104397 0
-2.832342 -2.832342 0
-3.166985 -3.166985 0
-0.608008 -0.608008 0
-1.527245 -1.527245 0
-4.546311 -4.546311 0
-19.010551 -19.010551 0
-11.389027 -11.389027 0
-11.334735 -11.334735 0
-7.790881 -7.790881 0
-5.709821 -5.709821 0
-4.382570 -4.382570 0
-2.873359 -2.873359 0
-1.931047 -1.931047 0
+17.031665 +17.031665 0
-0.151529 -0.151529 0
+0.029993 +0.029993 0
-6.839838 -6.839838 0
-4.733594 -4.733594 0
-5.430293 -5.430293 0
-4.058499 -4.058499 0
-3.650075 -3.650075 0
-4.276089 -4.276089 0
-4.503029 -4.503029 0
+6.769449 +6.769449 0
+1.864771 +1.864771 0
-1.228389 -1.228389 0
-1.876289 -1.876289 0
-3.612300 -3.612300 0
-2.799488 -2.799488 0
-3.118064 -3.118064 0
-1.694120 -1.694120 0
-13.355622 -13.355622 0
-3.103063 -3.103063 0
-2.123284 -2.123284 0
-0.291860 -0.291860 0
-0.979055 -0.979055 0
-1.983944 -1.983944 0
-1.863448 -1.863448 0
-2.099639 -2.099639 0
-1.857454 -1.857454 0
+4.658171 +4.658171 0
-5.796026 -5.796026 0
-2.762983 -2.762983 0
-1.141263 -1.141263 0
-0.857182 -0.857182 0
-1.210177 -1.210177 0
-1.140981 -1.140981 0
-1.771573 -1.771573 0
-1.686351 -1.686351 0
+25.636521 +25.636521 0
+3.623410 +3.623410 0
+0.782346 +0.782346 0
-1.311903 -1.311903 0
-0.625749 -0.625749 0
-0.668620 -0.668620 0
-0.511842 -0.511842 0
-0.924847 -0.924847 0
-0.471963 -0.471963 0
+4.432108 +4.432108 0
+0.024020 +0.024020 0
-0.297836 -0.297836 0
-0.149268 -0.149268 0
-0.293739 -0.293739 0
-0.488826 -0.488826 0
-0.444350 -0.444350 0
+0.217584 +0.217584 0
-1.581369 -1.581369 0
-0.988512 -0.988512 0
-1.136226 -1.136226 0
+0.040321 +0.040321 0
-1.928041 -1.928041 0
-1.555984 -1.555984 0
-0.788436 -0.788436 0
-5.013120 -5.013120 0
-2.218490 -2.218490 0
-2.635768 -2.635768 0
-0.462328 -0.462328 0
-1.168727 -1.168727 0
-4.083900 -4.083900 0
-4.543910 -4.543910 0
-3.316158 -3.316158 0
+9.234473 +9.234473 0
-2.827830 -2.827830 0
-5.953412 -5.953412 0
-9.754882 -9.754882 0
-10.949592 -10.949592 0
-2.429014 -2.429014 0
-4.741221 -4.741221 0
-10.802934 -10.802934 0
-23.034603 -23.034603 0
+0.628419 +0.628419 0
-0.079905 -0.079905 0
-2.637079 -2.637079 0
-7.793853 -7.793853 0
+5.541380 +5.541380 0
+5.587390 +5.587390 0
+6.453417 +6.453417 0
+8.928523 +8.928523 0
-0.471907 -0.471907 0
-0.149165 -0.149165 0
-0.510307 -0.510307 0
-0.292160 -0.292160 0
-0.576201 -0.576201 0
+0.027107 +0.027107 0
+0.253149 +0.253149 0
-0.736468 -0.736468 0
-2.076855 -2.076855 0
-1.686302 -1.686302 0
-0.924607 -0.924607 0
-1.141669 -1.141669 0
-0.662397 -0.662397 0
-0.827203 -0.827203 0
-1.163970 -1.163970 0
-1.841842 -1.841842 0
+1.862170 +1.862170 0
+5.059608 +5.059608 0
-1.857627 -1.857627 0
-1.771660 -1.771660 0
-1.864178 -1.864178 0
-1.215319 -1.215319 0
-1.025335 -1.025335 0
-1.077713 -1.077713 0
-2.122533 -2.122533 0
-3.315349 -3.315349 0
-4.837136 -4.837136 0
-1.693828 -1.693828 0
-2.100021 -2.100021 0
-2.798655 -2.798655 0
-1.983585 -1.983585 0
-1.869799 -1.869799 0
-0.463443 -0.463443 0
+1.329161 +1.329161 0
-3.750354 -3.750354 0
-8.794661 -8.794661 0
-4.276013 -4.276013 0
-3.116684 -3.116684 0
-4.057276 -4.057276 0
-3.612193 -3.612193 0
-4.711338 -4.711338 0
-1.118982 -1.118982 0
+0.441720 +0.441720 0
+5.835133 +5.835133 0
+16.367174 +16.367174 0
-1.931650 -1.931650 0
-3.651478 -3.651478 0
-4.384892 -4.384892 0
-5.425447 -5.425447 0
-7.806803 -7.806803 0
-6.866090 -6.866090 0
-11.550849 -11.550849 0
+0.955416 +0.955416 0
-2.274110 -2.274110 0
-1.526738 -1.526738 0
-2.872930 -2.872930 0
-3.165426 -3.165426 0
-5.717159 -5.717159 0
-7.106165 -7.106165 0
-11.342256 -11.342256 0
-15.667399 -15.667399 0
-19.660589 -19.660589 0
-32.780729 -32.780729 0
+2.088362 +2.088362 0
-0.608608 -0.608608 0
+0.437265 +0.437265 0
-2.828270 -2.828270 0
-1.096068 -1.096068 0
-7.409137 -7.409137 0
-4.579585 -4.579585 0
-18.034855 -18.034855 0
-13.400089 -13.400089 0
+4.430926 +4.430926 0
+3.238917 +3.238917 0
+5.501942 +5.501942 0
+2.742971 +2.742971 0
+5.881444 +5.881444 0
+2.352619 +2.352619 0
+7.343432 +7.343432 0
+2.084681 +2.084681 0
+11.394237 +11.394237 0
+7.374176 +7.374176 0
+7.870818 +7.870818 0
+8.774957 +8.774957 0
+10.910737 +10.910737 0
+8.929225 +8.929225 0
+6.458948 +6.458948 0
+5.562598 +5.562598 0
+5.335425 +5.335425 0
-7.790170 -7.790170 0
-2.621560 -2.621560 0
-0.142730 -0.142730 0
+1.018062 +1.018062 0
-23.033518 -23.033518 0
-10.804671 -10.804671 0
-4.748605 -4.748605 0
-2.087824 -2.087824 0
-10.954055 -10.954055 0
-9.756203 -9.756203 0
-5.960061 -5.960061 0
-3.416494 -3.416494 0
+9.233867 +9.233867 0
-3.314678 -3.314678 0
-4.522074 -4.522074 0
-3.377850 -3.377850 0
-1.166233 -1.166233 0
-0.463587 -0.463587 0
-2.652460 -2.652460 0
-2.715700 -2.715700 0
-5.016005 -5.016005 0
-0.796176 -0.796176 0
-1.559185 -1.559185 0
-1.936253 -1.936253 0
+0.043370 +0.043370 0
-1.105681 -1.105681 0
-0.924612 -0.924612 0
-1.197091 -1.197091 0
+0.214639 +0.214639 0
-0.508748 -0.508748 0
-0.824596 -0.824596 0
-0.933258 -0.933258 0
+11.394685 +11.394685 0
+10.911458 +10.911458 0
+7.346889 +7.346889 0
+8.776491 +8.776491 0
+5.869829 +5.869829 0
+7.887763 +7.887763 0
+5.413751 +5.413751 0
+7.602605 +7.602605 0
+5.333602 +5.333602 0
-13.397110 -13.397110 0
+2.089848 +2.089848 0
-4.571292 -4.571292 0
+2.348992 +2.348992 0
-1.113415 -1.113415 0
+2.750102 +2.750102 0
+0.584998 +0.584998 0
+3.084187 +3.084187 0
+1.303974 +1.303974 0
-32.780991 -32.780991 0
-18.031788 -18.031788 0
-15.666570 -15.666570 0
-7.411154 -7.411154 0
-7.118460 -7.118460 0
-2.769512 -2.769512 0
-3.087240 -3.087240 0
-0.737637 -0.737637 0
-1.493614 -1.493614 0
-2.278423 -2.278423 0
-19.663521 -19.663521 0
-11.553242 -11.553242 0
-11.340441 -11.340441 0
-7.802505 -7.802505 0
-5.758686 -5.758686 0
-4.457261 -4.457261 0
-2.950980 -2.950980 0
-2.796388 -2.796388 0
+16.369419 +16.369419 0
+0.952629 +0.952629 0
+0.441050 +0.441050 0
-6.866777 -6.866777 0
-4.708679 -4.708679 0
-5.405541 -5.405541 0
-3.978280 -3.978280 0
-3.521450 -3.521450 0
-2.970097 -2.970097 0
-8.794618 -8.794618 0
+5.836940 +5.836940 0
+1.328776 +1.328776 0
-1.120368 -1.120368 0
-1.874997 -1.874997 0
-3.606233 -3.606233 0
-2.860036 -2.860036 0
-3.082213 -3.082213 0
-2.550004 -2.550004 0
-4.837573 -4.837573 0
-3.751250 -3.751250 0
-2.120257 -2.120257 0
-0.464991 -0.464991 0
-1.018800 -1.018800 0
-2.005311 -2.005311 0
-1.848791 -1.848791 0
-2.331168 -2.331168 0
-1.919347 -1.919347 0
+5.059690 +5.059690 0
-3.314243 -3.314243 0
-1.846473 -1.846473 0
-1.068361 -1.068361 0
-0.854413 -0.854413 0
-1.178300 -1.178300 0
-1.127991 -1.127991 0
-1.561849 -1.561849 0
-1.273128 -1.273128 0
-2.077031 -2.077031 0
+1.861569 +1.861569 0
+0.258586 +0.258586 0
-1.186006 -1.186006 0
-0.504829 -0.504829 0
-0.790239 -0.790239 0
-0.290564 -0.290564 0
-1.073773 -1.073773 0
-0.509847 -0.509847 0
-0.736679 -0.736679 0
+0.049004 +0.049004 0
+0.027580 +0.027580 0
+1.507906 +1.507906 0
-0.937138 -0.937138 0
-0.826502 -0.826502 0
-0.436724 -0.436724 0
-0.232295 -0.232295 0
-1.185510 -1.185510 0
-1.006441 -1.006441 0
-0.801250 -0.801250 0
-0.571562 -0.571562 0
-1.861587 -1.861587 0
-1.661404 -1.661404 0
-1.383171 -1.383171 0
-1.041576 -1.041576 0
-2.562841 -2.562841 0
-2.338637 -2.338637 0
-2.013277 -2.013277 0
-1.626464 -1.626464 0
-3.340132 -3.340132 0
-3.106444 -3.106444 0
-2.762626 -2.762626 0
-2.351533 -2.351533 0
-4.215944 -4.215944 0
-3.986000 -3.986000 0
-3.644486 -3.644486 0
-3.232827 -3.232827 0
-5.229656 -5.229656 0
-5.017403 -5.017403 0
-4.699323 -4.699323 0
-4.312438 -4.312438 0
-6.442616 -6.442616 0
-6.265238 -6.265238 0
-5.996334 -5.996334 0
-5.665072 -5.665072 0
-7.959939 -7.959939 0
-7.843928 -7.843928 0
-7.664880 -7.664880 0
-7.440374 -7.440374 0
-0.505659 -0.505659 0
+1.491720 +1.491720 0
-0.318774 -0.318774 0
+0.086992 +0.086992 0
-0.367652 -0.367652 0
-0.155486 -0.155486 0
-0.297759 -0.297759 0
-0.099970 -0.099970 0
-0.153358 -0.153358 0
-1.263828 -1.263828 0
-1.057878 -1.057878 0
-1.146077 -1.146077 0
-0.901974 -0.901974 0
-0.976804 -0.976804 0
-0.613149 -0.613149 0
-0.710874 -0.710874 0
-0.388034 -0.388034 0
-0.439975 -0.439975 0
-1.912956 -1.912956 0
-1.517743 -1.517743 0
-1.771654 -1.771654 0
-1.326063 -1.326063 0
-1.524337 -1.524337 0
-1.082269 -1.082269 0
-1.210072 -1.210072 0
-0.790555 -0.790555 0
-0.861463 -0.861463 0
-2.625800 -2.625800 0
-2.204594 -2.204594 0