# vtk DataFile Version 2.0
MyTitle
ASCII
DATASET UNSTRUCTURED_GRID
POINTS 1311 double
-10.000000 0.000000 0.000000
-6.000000 0.000000 0.000000
-4.000000 0.000000 0.000000
0.000000 0.000000 0.000000
4.000000 0.000000 0.000000
6.000000 0.000000 0.000000
10.000000 0.000000 0.000000
-10.000000 5.000000 0.000000
-5.000000 5.000000 0.000000
5.000000 5.000000 0.000000
0.000000 5.000000 0.000000
10.000000 5.000000 0.000000
-5.000000 1.000000 0.000000
5.000000 1.000000 0.000000
-5.707000 0.707000 0.000000
-4.293000 0.707000 0.000000
4.293000 0.707000 0.000000
5.707000 0.707000 0.000000
0.400000 0.000000 0.000000
0.800000 0.000000 0.000000
1.200000 0.000000 0.000000
1.600000 0.000000 0.000000
2.000000 0.000000 0.000000
2.400000 0.000000 0.000000
2.800000 0.000000 0.000000
3.200000 0.000000 0.000000
3.600000 0.000000 0.000000
0.200000 0.000000 0.000000
0.600000 0.000000 0.000000
1.000000 0.000000 0.000000
1.400000 0.000000 0.000000
1.800000 0.000000 0.000000
2.200000 0.000000 0.000000
2.600000 0.000000 0.000000
3.000000 0.000000 0.000000
3.400000 0.000000 0.000000
3.800000 0.000000 0.000000
6.400000 0.000000 0.000000
6.800000 0.000000 0.000000
7.200000 0.000000 0.000000
7.600000 0.000000 0.000000
8.000000 0.000000 0.000000
8.400000 0.000000 0.000000
8.800000 0.000000 0.000000
9.200000 0.000000 0.000000
9.600000 0.000000 0.000000
6.200000 0.000000 0.000000
6.600000 0.000000 0.000000
7.000000 0.000000 0.000000
7.400000 0.000000 0.000000
7.800000 0.000000 0.000000
8.200000 0.000000 0.000000
8.600000 0.000000 0.000000
9.000000 0.000000 0.000000
9.400000 0.000000 0.000000
9.800000 0.000000 0.000000
10.000000 1.000000 0.000000
10.000000 2.000000 0.000000
10.000000 3.000000 0.000000
10.000000 4.000000 0.000000
10.000000 0.500000 0.000000
10.000000 1.500000 0.000000
10.000000 2.500000 0.000000
10.000000 3.500000 0.000000
10.000000 4.500000 0.000000
9.000000 5.000000 0.000000
8.000000 5.000000 0.000000
7.000000 5.000000 0.000000
6.000000 5.000000 0.000000
9.500000 5.000000 0.000000
8.500000 5.000000 0.000000
7.500000 5.000000 0.000000
6.500000 5.000000 0.000000
5.500000 5.000000 0.000000
5.000000 4.600000 0.000000
5.000000 4.200000 0.000000
5.000000 3.800000 0.000000
5.000000 3.400000 0.000000
5.000000 3.000000 0.000000
5.000000 2.600000 0.000000
5.000000 2.200000 0.000000
5.000000 1.800000 0.000000
5.000000 1.400000 0.000000
5.000000 4.800000 0.000000
5.000000 4.400000 0.000000
5.000000 4.000000 0.000000
5.000000 3.600000 0.000000
5.000000 3.200000 0.000000
5.000000 2.800000 0.000000
5.000000 2.400000 0.000000
5.000000 2.000000 0.000000
5.000000 1.600000 0.000000
5.000000 1.200000 0.000000
4.000000 5.000000 0.000000
3.000000 5.000000 0.000000
2.000000 5.000000 0.000000
1.000000 5.000000 0.000000
4.500000 5.000000 0.000000
3.500000 5.000000 0.000000
2.500000 5.000000 0.000000
1.500000 5.000000 0.000000
0.500000 5.000000 0.000000
0.000000 4.000000 0.000000
0.000000 3.000000 0.000000
0.000000 2.000000 0.000000
0.000000 1.000000 0.000000
0.000000 4.500000 0.000000
0.000000 3.500000 0.000000
0.000000 2.500000 0.000000
0.000000 1.500000 0.000000
0.000000 0.500000 0.000000
-1.000000 5.000000 0.000000
-2.000000 5.000000 0.000000
-3.000000 5.000000 0.000000
-4.000000 5.000000 0.000000
-0.500000 5.000000 0.000000
-1.500000 5.000000 0.000000
-2.500000 5.000000 0.000000
-3.500000 5.000000 0.000000
-4.500000 5.000000 0.000000
-5.000000 4.600000 0.000000
-5.000000 4.200000 0.000000
-5.000000 3.800000 0.000000
-5.000000 3.400000 0.000000
-5.000000 3.000000 0.000000
-5.000000 2.600000 0.000000
-5.000000 2.200000 0.000000
-5.000000 1.800000 0.000000
-5.000000 1.400000 0.000000
-5.000000 4.800000 0.000000
-5.000000 4.400000 0.000000
-5.000000 4.000000 0.000000
-5.000000 3.600000 0.000000
-5.000000 3.200000 0.000000
-5.000000 2.800000 0.000000
-5.000000 2.400000 0.000000
-5.000000 2.000000 0.000000
-5.000000 1.600000 0.000000
-5.000000 1.200000 0.000000
-6.000000 5.000000 0.000000
-7.000000 5.000000 0.000000
-8.000000 5.000000 0.000000
-9.000000 5.000000 0.000000
-5.500000 5.000000 0.000000
-6.500000 5.000000 0.000000
-7.500000 5.000000 0.000000
-8.500000 5.000000 0.000000
-9.500000 5.000000 0.000000
-10.000000 4.000000 0.000000
-10.000000 3.000000 0.000000
-10.000000 2.000000 0.000000
-10.000000 1.000000 0.000000
-10.000000 4.500000 0.000000
-10.000000 3.500000 0.000000
-10.000000 2.500000 0.000000
-10.000000 1.500000 0.000000
-10.000000 0.500000 0.000000
-9.600000 0.000000 0.000000
-9.200000 0.000000 0.000000
-8.800000 0.000000 0.000000
-8.400000 0.000000 0.000000
-8.000000 0.000000 0.000000
-7.600000 0.000000 0.000000
-7.200000 0.000000 0.000000
-6.800000 0.000000 0.000000
-6.400000 0.000000 0.000000
-9.800000 0.000000 0.000000
-9.400000 0.000000 0.000000
-9.000000 0.000000 0.000000
-8.600000 0.000000 0.000000
-8.200000 0.000000 0.000000
-7.800000 0.000000 0.000000
-7.400000 0.000000 0.000000
-7.000000 0.000000 0.000000
-6.600000 0.000000 0.000000
-6.200000 0.000000 0.000000
-3.600000 0.000000 0.000000
-3.200000 0.000000 0.000000
-2.800000 0.000000 0.000000
-2.400000 0.000000 0.000000
-2.000000 0.000000 0.000000
-1.600000 0.000000 0.000000
-1.200000 0.000000 0.000000
-0.800000 0.000000 0.000000
-0.400000 0.000000 0.000000
-3.800000 0.000000 0.000000
-3.400000 0.000000 0.000000
-3.000000 0.000000 0.000000
-2.600000 0.000000 0.000000
-2.200000 0.000000 0.000000
-1.800000 0.000000 0.000000
-1.400000 0.000000 0.000000
-1.000000 0.000000 0.000000
-0.600000 0.000000 0.000000
-0.200000 0.000000 0.000000
-5.987688 0.156434 0.000000
-5.951057 0.309017 0.000000
-5.891007 0.453990 0.000000
-5.809017 0.587785 0.000000
-5.996917 0.078459 0.000000
-5.972370 0.233445 0.000000
-5.923880 0.382683 0.000000
-5.852640 0.522499 0.000000
-5.760406 0.649448 0.000000
-5.587696 0.808895 0.000000
-5.453922 0.890872 0.000000
-5.308970 0.950913 0.000000
-5.156411 0.987539 0.000000
-5.649350 0.760291 0.000000
-5.522420 0.852511 0.000000
-5.382626 0.923740 0.000000
-5.233410 0.972223 0.000000
-5.078447 0.996767 0.000000
-4.843566 0.987688 0.000000
-4.690983 0.951057 0.000000
-4.546010 0.891007 0.000000
-4.412215 0.809017 0.000000
-4.921541 0.996917 0.000000
-4.766555 0.972370 0.000000
-4.617317 0.923880 0.000000
-4.477501 0.852640 0.000000
-4.350552 0.760406 0.000000
-4.191105 0.587696 0.000000
-4.109128 0.453922 0.000000
-4.049087 0.308970 0.000000
-4.012461 0.156411 0.000000
-4.239709 0.649350 0.000000
-4.147489 0.522420 0.000000
-4.076260 0.382626 0.000000
-4.027777 0.233410 0.000000
-4.003233 0.078447 0.000000
4.012312 0.156434 0.000000
4.048943 0.309017 0.000000
4.108993 0.453990 0.000000
4.190983 0.587785 0.000000
4.003083 0.078459 0.000000
4.027630 0.233445 0.000000
4.076120 0.382683 0.000000
4.147360 0.522499 0.000000
4.239594 0.649448 0.000000
4.412304 0.808895 0.000000
4.546078 0.890872 0.000000
4.691030 0.950913 0.000000
4.843589 0.987539 0.000000
4.350650 0.760291 0.000000
4.477580 0.852511 0.000000
4.617374 0.923740 0.000000
4.766590 0.972223 0.000000
4.921553 0.996767 0.000000
5.156434 0.987688 0.000000
5.309017 0.951057 0.000000
5.453990 0.891007 0.000000
5.587785 0.809017 0.000000
5.078459 0.996917 0.000000
5.233445 0.972370 0.000000
5.382683 0.923880 0.000000
5.522499 0.852640 0.000000
5.649448 0.760406 0.000000
5.808895 0.587696 0.000000
5.890872 0.453922 0.000000
5.950913 0.308970 0.000000
5.987539 0.156411 0.000000
5.760291 0.649350 0.000000
5.852511 0.522420 0.000000
5.923740 0.382626 0.000000
5.972223 0.233410 0.000000
5.996767 0.078447 0.000000
-6.136300 1.136300 0.000000
-6.565600 1.565600 0.000000
-6.994900 1.994900 0.000000
-7.424200 2.424200 0.000000
-7.853500 2.853500 0.000000
-8.282800 3.282800 0.000000
-8.712100 3.712100 0.000000
-9.141400 4.141400 0.000000
-9.570700 4.570700 0.000000
-5.921650 0.921650 0.000000
-6.350950 1.350950 0.000000
-6.780250 1.780250 0.000000
-7.209550 2.209550 0.000000
-7.638850 2.638850 0.000000
-8.068150 3.068150 0.000000
-8.497450 3.497450 0.000000
-8.926750 3.926750 0.000000
-9.356050 4.356050 0.000000
-9.785350 4.785350 0.000000
-3.863700 1.136300 0.000000
-3.434400 1.565600 0.000000
-3.005100 1.994900 0.000000
-2.575800 2.424200 0.000000
-2.146500 2.853500 0.000000
-1.717200 3.282800 0.000000
-1.287900 3.712100 0.000000
-0.858600 4.141400 0.000000
-0.429300 4.570700 0.000000
-4.078350 0.921650 0.000000
-3.649050 1.350950 0.000000
-3.219750 1.780250 0.000000
-2.790450 2.209550 0.000000
-2.361150 2.638850 0.000000
-1.931850 3.068150 0.000000
-1.502550 3.497450 0.000000
-1.073250 3.926750 0.000000
-0.643950 4.356050 0.000000
-0.214650 4.785350 0.000000
3.863700 1.136300 0.000000
3.434400 1.565600 0.000000
3.005100 1.994900 0.000000
2.575800 2.424200 0.000000
2.146500 2.853500 0.000000
1.717200 3.282800 0.000000
1.287900 3.712100 0.000000
0.858600 4.141400 0.000000
0.429300 4.570700 0.000000
4.078350 0.921650 0.000000
3.649050 1.350950 0.000000
3.219750 1.780250 0.000000
2.790450 2.209550 0.000000
2.361150 2.638850 0.000000
1.931850 3.068150 0.000000
1.502550 3.497450 0.000000
1.073250 3.926750 0.000000
0.643950 4.356050 0.000000
0.214650 4.785350 0.000000
6.136300 1.136300 0.000000
6.565600 1.565600 0.000000
6.994900 1.994900 0.000000
7.424200 2.424200 0.000000
7.853500 2.853500 0.000000
8.282800 3.282800 0.000000
8.712100 3.712100 0.000000
9.141400 4.141400 0.000000
9.570700 4.570700 0.000000
5.921650 0.921650 0.000000
6.350950 1.350950 0.000000
6.780250 1.780250 0.000000
7.209550 2.209550 0.000000
7.638850 2.638850 0.000000
8.068150 3.068150 0.000000
8.497450 3.497450 0.000000
8.926750 3.926750 0.000000
9.356050 4.356050 0.000000
9.785350 4.785350 0.000000
-9.580902 3.658779 0.000000
-9.161803 3.317557 0.000000
-8.742705 2.976336 0.000000
-8.323607 2.635114 0.000000
-7.904508 2.293893 0.000000
-7.485410 1.952671 0.000000
-7.066312 1.611450 0.000000
-6.647214 1.270228 0.000000
-6.228115 0.929007 0.000000
-9.589101 2.745399 0.000000
-9.178201 2.490798 0.000000
-8.767302 2.236197 0.000000
-8.356403 1.981596 0.000000
-7.945503 1.726995 0.000000
-7.534604 1.472394 0.000000
-7.123705 1.217793 0.000000
[...]
POINT_DATA 1311
VECTORS sol double
-0.480000 -0.053333 0
-12.000000 +0.000000 0
+12.000000 +0.000000 0
+0.480000 -0.480000 0
+0.148148 -12.000000 0
+0.099174 +12.000000 0
+0.053333 +0.480000 0
-70156.566478 -2709.580042 0
+56158.780069 +1451.077494 0
+0.055000 +1.413146 0
-1.312423 +0.106350 0
+0.380233 -7102.072304 0
+0.000000 +12.000000 0
+0.095924 +11.550646 0
-8.487845 +8.487845 0
+8.487845 +8.487845 0
-0.558996 +0.035995 0
+0.708690 +78.332332 0
+0.411523 -0.567108 0
+0.356718 -0.680272 0
+0.312175 -0.831025 0
+0.275482 -1.038062 0
+0.244898 -1.333333 0
+0.219138 -1.775148 0
+0.197239 -2.479339 0
+0.178465 -3.703704 0
+0.162250 -6.122449 0
+0.443787 -0.520833 0
+0.382653 -0.619835 0
+0.333333 -0.750000 0
+0.292969 -0.925926 0
+0.259516 -1.171875 0
+0.231481 -1.530612 0
+0.207756 -2.083333 0
+0.187500 -3.000000 0
+0.170068 -4.687500 0
+0.154959 -8.333333 0
+0.092336 +6.122449 0
+0.086182 +3.703704 0
+0.080623 +2.479339 0
+0.075586 +1.775148 0
+0.071006 +1.333333 0
+0.066830 +1.038062 0
+0.063012 +0.831025 0
+0.059512 +0.680272 0
+0.056296 +0.567108 0
+0.095663 +8.333333 0
+0.089180 +4.687500 0
+0.083333 +3.000000 0
+0.078044 +2.083333 0
+0.073242 +1.530612 0
+0.068871 +1.171875 0
+0.064879 +0.925926 0
+0.061224 +0.750000 0
+0.057870 +0.619835 0
+0.054785 +0.520833 0
+0.484119 +5.640695 0
+0.791258 +16.886637 0
+0.858526 -199.091552 0
+1.032010 -1753.294233 0
+0.278017 +2.375605 0
+0.659170 +13.028518 0
+0.859356 -19.894169 0
+0.871577 -710.325578 0
+1.152336 -3736.679014 0
+1.032008 -1753.294460 0
+0.858524 -199.090470 0
+0.791276 +16.900669 0
+0.484108 +5.717835 0
+1.152337 -3736.678106 0
+0.871574 -710.325880 0
+0.859367 -19.888433 0
+0.659134 +13.048572 0
+0.278166 +2.660601 0
+0.056067 +1.149966 0
+0.058999 +0.501218 0
+0.063181 -0.050259 0
+0.067459 +0.143529 0
+0.071265 +1.536649 0
+0.075049 +3.100960 0
+0.079999 +3.034902 0
+0.086777 +2.257772 0
+0.093292 +5.940222 0
+0.054964 +1.204429 0
+0.057289 +0.834100 0
+0.060897 +0.108551 0
+0.065203 -0.035554 0
+0.069428 +0.810081 0
+0.073117 +2.353783 0
+0.077329 +3.250061 0
+0.083230 +2.484050 0
+0.090267 +3.387447 0
+0.095278 +9.415088 0
-0.391333 +0.661119 0
-0.766751 +0.455415 0
-1.034192 +0.266923 0
-1.130693 +0.145632 0
-0.172128 +0.875456 0
-0.591496 +0.547466 0
-0.913676 +0.356711 0
-1.113563 +0.196592 0
-1.185494 +0.115360 0
-2.261453 +0.214161 0
-172.798706 +7.521444 0
-1560.508085 +76.408571 0
-3949.156908 +228.966962 0
-1.508472 +0.110285 0
-0.862715 -0.053745 0
+194.076076 -9.333213 0
+1794.881685 -86.873137 0
+1136.571030 -97.521639 0
-0.914063 +0.066619 0
+5.526522 +0.139193 0
+193.173554 +4.877384 0
+3665.255681 +97.177338 0
-1.111067 +0.094455 0
-0.946345 +0.033654 0
+8.077361 +0.034828 0
-4.034467 -1.093001 0
-2265.913569 -92.520403 0
-49570.712565 -1471.509924 0
+20975.084535 +710.819336 0
+22053.334794 +1051.781797 0
-45259.802986 -2085.592196 0
+38101.354137 +1373.250589 0
-18320.120048 +36.202875 0
+3540.329335 -762.904348 0
-4006.622231 -587.621806 0
+1324.588263 -492.803529 0
+3216.297453 -23.742166 0
-15865.986955 -420.701767 0
+25004.769854 +1024.416056 0
-14427.650886 -589.632442 0
-4339.467709 -528.351386 0
+14609.070003 +1107.072357 0
-15666.093114 -901.527261 0
+13707.419651 +583.313975 0
-6530.699469 +653.862452 0
+2881.493965 -324.203704 0
+3664.054164 +97.131440 0
+151.738707 +2.182664 0
-2718.671328 -70.554687 0
-47613.544787 -433.863177 0
-2265.853510 -92.520562 0
+0.539756 -1.244296 0
-298.363248 -17.807193 0
-15158.189700 -199.364021 0
-87750.374401 -1041.046600 0
-47613.649496 -433.867996 0
-2725.675839 -70.744534 0
-42.863839 -2.907595 0
-2.512420 -0.358961 0
-87750.512731 -1041.045680 0
-15158.534426 -199.383457 0
-307.823014 -17.975581 0
+3.163851 -0.440189 0
-0.925023 -0.278766 0
-0.567108 -0.056296 0
-0.680272 -0.059512 0
-0.831025 -0.063012 0
-1.038062 -0.066830 0
-1.333333 -0.071006 0
-1.775148 -0.075586 0
-2.479339 -0.080623 0
-3.703704 -0.086182 0
-6.122449 -0.092336 0
-0.520833 -0.054785 0
-0.619835 -0.057870 0
-0.750000 -0.061224 0
-0.925926 -0.064879 0
-1.171875 -0.068871 0
-1.530612 -0.073242 0
-2.083333 -0.078044 0
-3.000000 -0.083333 0
-4.687500 -0.089180 0
-8.333333 -0.095663 0
+6.122449 -0.162250 0
+3.703704 -0.178465 0
+2.479339 -0.197239 0
+1.775148 -0.219138 0
+1.333333 -0.244898 0
+1.038062 -0.275482 0
+0.831025 -0.312175 0
+0.680272 -0.356718 0
+0.567108 -0.411523 0
+8.333333 -0.154959 0
+4.687500 -0.170068 0
+3.000000 -0.187500 0
+2.083333 -0.207756 0
+1.530612 -0.231481 0
+1.171875 -0.259516 0
+0.925926 -0.292969 0
+0.750000 -0.333333 0
+0.619835 -0.382653 0
+0.520833 -0.443787 0
-11.852260 +1.877214 0
-11.412678 +3.708204 0
-10.692078 +5.447886 0
-9.708204 +7.053423 0
-11.963008 +0.941509 0
-11.668439 +2.801344 0
-11.086554 +4.592201 0
-10.231682 +6.269983 0
-9.124872 +7.793377 0
-7.055554 +9.711137 0
-5.449532 +10.695308 0
-3.709324 +11.416126 0
-1.877781 +11.855841 0
-7.795731 +9.127628 0
-6.271877 +10.234773 0
-4.593588 +11.089904 0
-2.802191 +11.671964 0
-0.941794 +11.966622 0
+1.877214 +11.852260 0
+3.708204 +11.412678 0
+5.447886 +10.692078 0
+7.053423 +9.708204 0
+0.941509 +11.963008 0
+2.801344 +11.668439 0
+4.592201 +11.086554 0
+6.269983 +10.231682 0
+7.793377 +9.124872 0
+9.711137 +7.055554 0
+10.695308 +5.449532 0
+11.416126 +3.709324 0
+11.855841 +1.877781 0
+9.127628 +7.795731 0
+10.234773 +6.271877 0
+11.089904 +4.593588 0
+11.671964 +2.802191 0
+11.966622 +0.941794 0
-0.102639 -7.018411 0
-0.321165 -4.660341 0
-0.476449 -2.869497 0
-0.555382 -1.362409 0
+0.021022 -9.163776 0
-0.218319 -5.716417 0
-0.407884 -3.711583 0
-0.525545 -2.092019 0
-0.565586 -0.655844 0
-0.500622 +1.439821 0
-0.392218 +2.975052 0
-0.248249 +4.837010 0
-0.081789 +7.407474 0
-0.537764 +0.728694 0
-0.452595 +2.178986 0
-0.324465 +3.841704 0
-0.167478 +5.978300 0
+0.006159 +9.139491 0
+0.274775 +19.357967 0
+0.443332 +35.875645 0
+0.586951 +72.103056 0
+0.682701 +140.635550 0
+0.186020 +14.615932 0
+0.361575 +25.534148 0
+0.520352 +48.963923 0
+0.644502 +93.954671 0
+0.712277 +81.033215 0
+0.682699 +140.516493 0
+0.587045 +72.043396 0
+0.443655 +35.742451 0
+0.275625 +18.994444 0
+0.712230 +80.919868 0
+0.644538 +93.877429 0
+0.520537 +48.881418 0
+0.362089 +25.307550 0
+0.187835 +14.655774 0
-42332.583792 -271.858198 0
+62894.659162 -529.637025 0
+130932.300431 -1537.087910 0
-142396.867784 +1651.362876 0
-34537.737408 -50.660269 0
+81839.219336 -430.781797 0
+30392.184742 +822.811410 0
-23313.789690 -120.784152 0
-102010.982368 -927.982515 0
-19830.532305 +266.837132 0
-16362.792068 +496.651014 0
+114551.521542 -1772.034894 0
+51951.124504 -210.499110 0
-189766.419331 +1675.841448 0
+66272.915076 -610.075715 0
+78823.914929 -273.778160 0
-8840.591375 +841.561569 0
-47362.511675 -877.766182 0
-114744.034730 -1482.835110 0
-42688.359850 +1045.925941 0
+54176.399173 -720.977022 0
+156018.416413 -1915.055905 0
-185126.657630 +1836.903426 0
+9688.660517 +493.983361 0
+87396.676149 -1402.194354 0
-62937.314504 +921.406506 0
+10313.436500 -55.616503 0
+12315.915958 -162.734455 0
-21076.618454 -61.630778 0
-11265.776685 -301.067966 0
+105830.413380 -656.726173 0
+66687.649479 -1447.110620 0
-221150.512864 +2886.518154 0
+123896.620119 -1147.792087 0
+29386.822799 -882.056311 0
-69865.796248 +1109.055412 0
+36695.384466 -545.429655 0
-11214.157099 +148.347091 0
-0.865465 +0.025810 0
-1.410783 +0.052039 0
-1.761160 +0.079984 0
-1.677756 +0.095158 0
-1.025409 +0.086895 0
-1.288039 +0.106272 0
-1.533899 +0.114252 0
-1.146832 +0.104736 0
-1.201819 +0.104808 0
-0.653663 +0.028880 0
-1.132644 +0.035559 0
-1.638065 +0.067872 0
-1.768131 +0.088711 0
-1.385162 +0.092793 0
-1.165993 +0.100842 0
-1.042535 +0.094831 0
-1.431922 +0.108039 0
-1.078072 +0.101914 0
-1.206829 +0.105377 0
+1.246572 -488.922434 0
+1.467230 +69.817304 0
+1.434036 +1426.635479 0
+2.500124 -2252.668927 0
+1.862091 -106.410671 0
+1.010988 +1938.551910 0
+0.641644 +1315.929747 0
+0.703279 -877.788824 0
+1.295828 -3645.110594 0
+0.875063 +245.486383 0
+1.402334 -495.915723 0
+1.499266 +658.346622 0
+1.732684 +592.276392 0
+2.607284 -2732.231408 0
+1.289106 +1609.024251 0
+0.780867 +1879.182029 0
+0.603743 +393.319038 0
+0.899920 -2241.856263 0
+1.247931 -5213.585897 0
-16924.865226 -180.091685 0
+6327.680673 +65.170502 0
+23839.493175 -107.862212 0
+255.664143 +38.740249 0
-52647.675984 +475.067249 0
+9393.797182 -40.039660 0
+59820.005770 -825.281905 0
+19680.510073 -135.880966 0
-16614.353608 +66.280260 0
+582.628849 -24.708798 0
+3298.238989 -2.007496 0
-1658.653187 +47.702376 0
-9122.078971 +87.794632 0
-4159.581348 +30.019441 0
+16806.517049 -211.261334 0
+26354.130083 -330.771072 0
+8308.297242 -117.035994 0
-6397.652120 +24.519635 0
+8.487699 +0.227653 0
-504.656009 +8.117104 0
-1189.625567 +11.115769 0
-153.265418 -5.914954 0
+4651.916101 -64.653390 0
+10616.098944 -138.143234 0
+11016.351022 -141.302993 0
+3912.980634 -65.298526 0
-2143.924006 +1.578549 0
-24.033330 -0.038588 0
+47.624470 -1.467043 0
+469.308634 -7.814391 0
+1509.926376 -21.818477 0
+3127.318424 -42.211782 0
+4484.650005 -59.100392 0
+4125.491959 -56.145573 0
+1683.024493 -29.948943 0
-550.461367 -3.151435 0
-26877.253305 -382.649361 0
-42148.144084 -549.085926 0
-8208.464661 +58.939227 0
-7482.132270 +265.430817 0
+20485.675011 -55.817010 0
+39947.218729 +0.274662 0
+15774.535273 -11.614880 0
+33414.176122 -184.978654 0
-34220.365711 +274.448752 0
-77365.903221 +608.481034 0
-27540.456322 +321.195029 0
-24937.397645 +396.528800 0
+40832.001438 -512.131147 0
+83346.218957 -1102.649059 0
+49134.475804 -580.302312 0
+36790.691365 -264.171647 0
-5688.617564 -1.356739 0
-26465.178738 -129.992151 0
-11303.100239 +91.380861 0
-2566.244639 -29.142407 0
-4915.590080 -34.344177 0
+3341.056887 -33.571731 0
+8504.926704 -37.013312 0
+1406.849467 +20.924308 0
+6848.471542 -0.244956 0
-5883.963854 +62.034472 0
-14036.010182 +131.319714 0
-9458.896488 +94.473502 0
-19793.527130 +202.022969 0
+6462.734087 -89.219406 0
+17813.526845 -215.527243 0
+24790.821202 -318.247891 0
+39390.067248 -507.436058 0
+19043.421558 -228.844911 0
+12113.150756 -125.485963 0
-1240.536015 -28.745566 0
-10160.001162 +39.647695 0
-5173.873347 +33.516016 0
+365.159343 -6.366123 0
+1009.080803 -12.205217 0
-387.611028 +8.490257 0
+42.969054 +13.695719 0
-1000.420971 +11.864729 0
-2678.887879 +33.477636 0
-1102.055842 +9.195486 0
-3792.587516 +35.264939 0
+2073.424605 -34.258946 0
+3039.467662 -49.039449 0
+7853.078612 -104.107641 0
+14202.138735 -182.684280 0
+11711.869136 -149.597503 0
+16779.487299 -210.965194 0
+7999.668179 -109.401284 0
+5606.884196 -89.251262 0
+196.205889 -26.486972 0
-3686.834181 +9.155342 0
-1986.635279 +9.983750 0
-95.786172 +0.901064 0
-171.218959 +2.225069 0
+18.167320 -1.254472 0
-274.133206 +2.307493 0
+206.003263 -4.050275 0
-41.880292 -2.546313 0
+928.951989 -14.419192 0
+1451.950125 -23.074309 0
+2274.586138 -31.354522 0
+4409.191619 -59.750892 0
+3937.022321 -52.273307 0
+7270.541249 -94.880878 0
+4560.230842 -60.520471 0
+6901.225171 -91.695784 0
+3059.389713 -44.746533 0
+2643.995905 -46.139728 0
+361.862653 -14.999791 0
-1091.822827 -2.654854 0
-614.098749 +1.968335 0
+28.550800 -0.744161 0
+121.509417 -2.141866 0
+389.431228 -5.934883 0
+905.176923 -12.727234 0
+1608.107713 -21.689608 0
+2124.392157 -28.290429 0
+1900.155620 -26.388855 0
+807.282562 -14.618075 0
-207.238942 -2.129681 0
-16617.513556 +65.618233 0
-6386.122292 +26.996338 0
-2212.580478 -21.023904 0
-1043.593883 +45.967787 0
+19665.414597 -136.005868 0
+8330.957472 -111.577272 0
+3779.429628 -88.357053 0
+2748.371908 +213.296479 0
+59820.607744 -825.404375 0
+26346.161305 -331.364657 0
+10987.722720 -153.877686 0
+4622.982282 -80.811431 0
+9409.604147 -40.171544 0
+16812.520194 -210.671455 0
+10615.424076 -134.046868 0
+3221.803084 -70.769119 0
-52650.168221 +475.099781 0
-4156.329867 +29.797240 0
+4704.694147 -61.428832 0
+5250.909037 +47.623114 0
+250.808015 +38.762068 0
-9124.268538 +87.694764 0
-220.926510 -11.158140 0
-801.621996 -139.697833 0
+23839.570079 -107.877783 0
-1663.023663 +47.714840 0
-1202.477986 +11.550171 0
+1243.719810 +36.888392 0
+6329.411903 +65.172558 0
+3308.003486 -1.651512 0
-323.453634 +13.571923 0
+2033.649747 +61.970129 0
-16924.384129 -180.094188 0
+569.586522 -25.058455 0
-258.215824 -7.388976 0
-3973.708124 -112.243281 0
-26465.387459 -130.270655 0
-11296.997223 +91.066856 0
-10155.447815 +40.885431 0
-5171.229245 +29.466105 0
-3718.032864 +0.212700 0
-1952.561337 -3.089680 0
-1295.068720 +22.283933 0
-106.704006 -91.056517 0
+13.576918 -213.569098 0
+36778.314472 -264.190672 0
-5696.071796 -0.760281 0
+12115.426901 -123.388591 0
-1254.763150 -29.727710 0
+5562.393584 -98.396619 0
+229.712934 -3.804430 0
+3029.134384 +34.969902 0
+13.713869 -27.655364 0
+111.159842 -226.507485 0
+83350.127829 -1102.777615 0
+49126.128239 -580.165293 0
+39388.860087 -507.235512 0
+19030.189925 -230.911299 0
+16748.454545 -217.100515 0
+8108.183503 -98.564395 0
+6990.796364 -87.791940 0
+2771.622277 -159.233983 0
+1108.814085 -316.652752 0
-24923.515183 +396.428585 0
+40842.191590 -512.313173 0
+17820.967001 -215.571304 0
+24798.878234 -317.631293 0
+14220.064056 -180.420692 0
+11620.747221 -157.697682 0
+7187.928944 -90.983256 0
+4258.685595 -50.210932 0
+845.658415 +61.150521 0
-77375.220776 +608.559306 0
-27531.257460 +321.177935 0
-19791.004243 +202.015444 0
+6465.556356 -89.376561 0
+3041.686297 -49.342814 0
+7917.456195 -96.462904 0
+4563.911387 -51.259115 0
+4635.904774 -12.163065 0
+4983.598964 +123.182725 0
+33412.600155 -184.974213 0
-34227.152985 +274.445716 0
-14039.048477 +131.251908 0
-9461.124430 +94.552131 0
-3809.640286 +34.489638 0
+2058.168022 -38.290007 0
+1197.948743 -38.294588 0
+1873.907446 -49.294253 0
-3022.216607 -230.168370 0
+39948.960203 +0.247242 0
+15771.614777 -11.570314 0
+6847.784840 -0.152765 0
-5882.969961 +61.813014 0
-2654.273651 +34.137857 0
-1160.284917 +7.911331 0
+193.484230 +6.377505 0
+268.448767 -55.197971 0
+2205.451434 +58.613703 0
-7481.262374 +265.444794 0
+20487.558624 -55.823487 0
+8505.158990 -37.014295 0
+1409.481021 +21.136802 0
+31.690415 +13.505736 0
-893.096491 +15.464984 0
-388.199630 +1.528029 0
+1734.436737 +57.251516 0
+783.775070 +66.817579 0
-42147.537342 -549.081795 0
-8207.850127 +58.950862 0
-4916.045725 -34.353925 0
+3338.915148 -33.665428 0
+1006.304575 -12.361887 0
-459.661494 +6.878049 0
-130.990307 +3.176248 0
-1141.740442 -32.198573 0
+686.006317 +9.289667 0
-26877.053457 -382.646017 0
-2567.222977 -29.198702 0
+341.451948 -7.194233 0
-113.225826 -4.033378 0
-3974.718471 -112.268252 0
-284.401676 -7.714612 0
+440.718791 -6.466102 0
-2827.710094 +37.390824 0
+2033.828159 +61.957962 0
-333.047361 +11.991777 0
+2395.258955 -27.587108 0
-6466.340718 +65.891540 0
+1244.643903 +36.919413 0
-1160.119261 +12.698317 0
-1243.913038 +32.645140 0
+17348.384076 -282.023710 0
-802.479139 -139.674506 0
-248.347729 -9.859374 0
-8679.611956 +112.104755 0
+10250.900709 -35.293689 0
+5249.488215 +47.533887 0
+4695.249298 -64.525184 0
-4838.639110 +29.454257 0
-57565.002821 +736.487701 0
+3224.008810 -70.648064 0
+10641.813976 -131.160891 0
+17209.133148 -232.464295 0
+10337.828481 -317.220817 0
+4620.706692 -80.911648 0
+10963.478819 -155.020669 0
+26255.428812 -307.783507 0
+60097.086975 -579.123805 0
+2751.914508 +213.424707 0
+3792.173782 -89.632600 0
+8311.040084 -122.208634 0
+19229.687904 -351.611859 0
-1045.437366 +46.125511 0
-2214.221593 -20.419717 0
-6357.213079 +35.784064 0
-16271.661585 +154.905482 0
+685.986039 +9.287257 0
-113.038729 -4.018901 0
-134.837499 +2.984127 0
+346.796484 -6.007554 0
+862.530347 -11.772394 0
-1295.378796 +16.961180 0
-3520.360809 +46.479769 0
+4025.292165 -53.184915 0
+12164.596622 -160.760857 0
+783.510715 +66.804733 0
-1142.482555 -32.228622 0
-383.956762 +1.462223 0
-477.893097 +5.727937 0
-57.458235 +5.581461 0
+2635.378512 -42.469731 0
+4220.188483 -78.431284 0
-11235.866098 +171.338901 0
-25007.310196 +405.072001 0
+2206.182129 +58.649349 0
+1734.870450 +57.247372 0
+196.293599 +6.721809 0
-869.291472 +15.456106 0
-2472.426413 +35.685349 0
+1225.118402 -4.014733 0
+7453.583099 -77.019843 0
+9091.795087 -179.347148 0
+10121.196316 -271.433761 0
-3022.773339 -230.175691 0
+270.124087 -55.091230 0
+1193.804052 -38.400296 0
-1163.910197 +9.118552 0
-3856.275088 +40.781449 0
-5253.727239 +73.680902 0
-12106.202483 +184.604500 0
+20356.182200 -190.307021 0
+52715.879359 -526.329302 0
+4983.018193 +123.119010 0
+1869.416994 -49.450479 0
+4560.999876 -51.617739 0
+2052.549384 -39.336903 0
+2964.719243 -55.366568 0
-9898.650616 +109.131422 0
-21571.099437 +224.747880 0
-32023.193251 +479.028979 0
-77810.716217 +1129.297633 0
+847.273492 +61.263811 0
+4640.058574 -12.086371 0
+7195.363477 -90.404099 0
+7910.871183 -96.295457 0
+14295.978456 -179.506133 0
+6565.459118 -116.672731 0
+18634.831796 -283.865597 0
-31192.489651 +255.359628 0
-31631.002734 +69.045812 0
+1106.798839 -316.744060 0
+4256.336742 -50.088834 0
+6982.606985 -88.123279 0
+11635.927005 -157.345457 0
+16722.954205 -214.780313 0
+24861.720761 -292.005430 0
+39172.848370 -423.540713 0
+43230.793972 -547.031709 0
+88867.094260 -934.160939 0
+113.583379 -226.453655 0
+2771.922819 -159.490775 0
+3035.178390 +34.514633 0
+8094.797495 -98.868341 0
+5563.454686 -99.528605 0
+18933.238671 -248.884814 0
+12071.073838 -206.185348 0
+48081.751193 -542.449961 0
+35011.951675 -562.011377 0
+12.083075 -213.456407 0
+15.745640 -27.567281 0
-1296.348177 +22.526844 0
+243.570125 -2.918116 0
-3710.911840 +3.072603 0
-1168.393701 -22.403992 0
-10040.570407 +76.824917 0
-5244.850435 +27.672206 0
-27259.379743 +576.643574 0
-107.958479 -91.178490 0
-1963.700612 -3.902822 0
-5237.240946 +23.020732 0
-11632.250978 +46.391182 0
-16269.958349 +155.566942 0
-6367.633785 +33.309109 0
-2140.608277 +2.158148 0
-542.295538 -3.188953 0
+19220.369066 -351.237460 0
+8278.771214 -127.569466 0
+3924.597953 -66.559856 0
+1689.387231 -29.854935 0
+60094.267722 -578.955099 0
+26261.680363 -307.174390 0
+10991.865657 -142.467180 0
+4126.412576 -56.256198 0
+10355.346606 -317.464878 0
+17210.538296 -233.136877 0
+10643.047978 -135.289290 0
+4487.414894 -59.079837 0
-57567.638950 +736.478676 0
-4839.181215 +29.654509 0
+4640.230074 -67.718904 0
+3123.309231 -42.341223 0
+10243.087964 -35.116520 0
-8679.206176 +112.224971 0
-188.188384 -4.431127 0
+1499.174818 -21.787143 0
+17355.884402 -282.267014 0
-1229.800060 +32.130282 0
-1155.369170 +12.673623 0
+446.226200 -7.688051 0
-6473.025737 +66.162969 0
+2340.393852 -25.569182 0
-511.749575 +7.482645 0
-13.721464 -0.746371 0
-2822.672845 +37.133290 0
+565.173933 -11.391174 0
+428.184783 -22.951902 0
-169.201016 +2.979909 0
-27257.491882 +576.892634 0
-11627.807884 +46.628657 0
-10045.809190 +75.594177 0
-5232.775554 +27.044603 0
-3676.918361 +12.008584 0
-1988.051709 +9.135528 0
-1085.734260 -2.510056 0
-601.642480 +1.828605 0
-196.480779 -2.180614 0
+35002.994535 -561.770491 0
-5256.515866 +27.268562 0
+12053.547182 -208.127824 0
-1160.404423 -21.355908 0
+5603.418154 -90.336878 0
+211.010111 -25.610041 0
+2651.527180 -46.609652 0
+369.792914 -14.970730 0
+814.164075 -14.629245 0
+88868.373379 -934.063958 0
+48073.795416 -542.401524 0
+39171.379937 -423.706056 0
+18939.664000 -246.751319 0
+16752.743937 -208.645277 0
+7985.149418 -109.702691 0
+6894.197149 -92.054291 0
+3062.823346 -45.031817 0
+1903.885335 -26.488554 0
-31614.286817 +68.785804 0
+43241.823127 -547.073961 0
+18643.022895 -283.994281 0
+24856.892351 -292.661048 0
+14280.542116 -181.807037 0
+11727.661170 -149.273193 0
+7278.148079 -94.349033 0
+4559.708054 -60.500163 0
+2126.450549 -28.378486 0
-77823.601926 +1129.459727 0
-31183.427180 +255.152771 0
-21569.489524 +224.705355 0
+6569.070531 -116.583425 0
+2962.607039 -55.047023 0
+7846.109407 -103.952062 0
+4403.041023 -60.105538 0
+3940.295450 -52.263865 0
+1607.737297 -21.799048 0
+52717.256262 -526.339798 0
-32032.734552 +479.209508 0
-12108.000984 +184.666455 0
-9896.683444 +109.078426 0
-3842.377865 +41.662826 0