# vtk DataFile Version 2.0
MyTitle
ASCII
DATASET UNSTRUCTURED_GRID
POINTS 1841 double
-2.000000 0.000000 0.000000
-1.000000 0.000000 0.000000
0.000000 1.000000 0.000000
1.000000 0.000000 0.000000
3.000000 0.000000 0.000000
4.000000 1.000000 0.000000
5.000000 0.000000 0.000000
6.000000 0.000000 0.000000
6.000000 3.000000 0.000000
-2.000000 3.000000 0.000000
-1.750000 0.000000 0.000000
-1.500000 0.000000 0.000000
-1.250000 0.000000 0.000000
-1.875000 0.000000 0.000000
-1.625000 0.000000 0.000000
-1.375000 0.000000 0.000000
-1.125000 0.000000 0.000000
-0.987688 0.156434 0.000000
-0.951057 0.309017 0.000000
-0.891007 0.453990 0.000000
-0.809017 0.587785 0.000000
-0.707107 0.707107 0.000000
-0.587785 0.809017 0.000000
-0.453990 0.891007 0.000000
-0.309017 0.951057 0.000000
-0.156434 0.987688 0.000000
-0.996917 0.078459 0.000000
-0.972370 0.233445 0.000000
-0.923880 0.382683 0.000000
-0.852640 0.522499 0.000000
-0.760406 0.649448 0.000000
-0.649448 0.760406 0.000000
-0.522499 0.852640 0.000000
-0.382683 0.923880 0.000000
-0.233445 0.972370 0.000000
-0.078459 0.996917 0.000000
0.156434 0.987688 0.000000
0.309017 0.951057 0.000000
0.453990 0.891007 0.000000
0.587785 0.809017 0.000000
0.707107 0.707107 0.000000
0.809017 0.587785 0.000000
0.891007 0.453990 0.000000
0.951057 0.309017 0.000000
0.987688 0.156434 0.000000
0.078459 0.996917 0.000000
0.233445 0.972370 0.000000
0.382683 0.923880 0.000000
0.522499 0.852640 0.000000
0.649448 0.760406 0.000000
0.760406 0.649448 0.000000
0.852640 0.522499 0.000000
0.923880 0.382683 0.000000
0.972370 0.233445 0.000000
0.996917 0.078459 0.000000
1.200000 0.000000 0.000000
1.400000 0.000000 0.000000
1.600000 0.000000 0.000000
1.800000 0.000000 0.000000
2.000000 0.000000 0.000000
2.200000 0.000000 0.000000
2.400000 0.000000 0.000000
2.600000 0.000000 0.000000
2.800000 0.000000 0.000000
1.100000 0.000000 0.000000
1.300000 0.000000 0.000000
1.500000 0.000000 0.000000
1.700000 0.000000 0.000000
1.900000 0.000000 0.000000
2.100000 0.000000 0.000000
2.300000 0.000000 0.000000
2.500000 0.000000 0.000000
2.700000 0.000000 0.000000
2.900000 0.000000 0.000000
3.012312 0.156434 0.000000
3.048943 0.309017 0.000000
3.108993 0.453990 0.000000
3.190983 0.587785 0.000000
3.292893 0.707107 0.000000
3.412215 0.809017 0.000000
3.546010 0.891007 0.000000
3.690983 0.951057 0.000000
3.843566 0.987688 0.000000
3.003083 0.078459 0.000000
3.027630 0.233445 0.000000
3.076120 0.382683 0.000000
3.147360 0.522499 0.000000
3.239594 0.649448 0.000000
3.350552 0.760406 0.000000
3.477501 0.852640 0.000000
3.617317 0.923880 0.000000
3.766555 0.972370 0.000000
3.921541 0.996917 0.000000
4.156434 0.987688 0.000000
4.309017 0.951057 0.000000
4.453990 0.891007 0.000000
4.587785 0.809017 0.000000
4.707107 0.707107 0.000000
4.809017 0.587785 0.000000
4.891007 0.453990 0.000000
4.951057 0.309017 0.000000
4.987688 0.156434 0.000000
4.078459 0.996917 0.000000
4.233445 0.972370 0.000000
4.382683 0.923880 0.000000
4.522499 0.852640 0.000000
4.649448 0.760406 0.000000
4.760406 0.649448 0.000000
4.852640 0.522499 0.000000
4.923880 0.382683 0.000000
4.972370 0.233445 0.000000
4.996917 0.078459 0.000000
5.250000 0.000000 0.000000
5.500000 0.000000 0.000000
5.750000 0.000000 0.000000
5.125000 0.000000 0.000000
5.375000 0.000000 0.000000
5.625000 0.000000 0.000000
5.875000 0.000000 0.000000
6.000000 0.300000 0.000000
6.000000 0.600000 0.000000
6.000000 0.900000 0.000000
6.000000 1.200000 0.000000
6.000000 1.500000 0.000000
6.000000 1.800000 0.000000
6.000000 2.100000 0.000000
6.000000 2.400000 0.000000
6.000000 2.700000 0.000000
6.000000 0.150000 0.000000
6.000000 0.450000 0.000000
6.000000 0.750000 0.000000
6.000000 1.050000 0.000000
6.000000 1.350000 0.000000
6.000000 1.650000 0.000000
6.000000 1.950000 0.000000
6.000000 2.250000 0.000000
6.000000 2.550000 0.000000
6.000000 2.850000 0.000000
5.764706 3.000000 0.000000
5.529412 3.000000 0.000000
5.294118 3.000000 0.000000
5.058824 3.000000 0.000000
4.823529 3.000000 0.000000
4.588235 3.000000 0.000000
4.352941 3.000000 0.000000
4.117647 3.000000 0.000000
3.882353 3.000000 0.000000
3.647059 3.000000 0.000000
3.411765 3.000000 0.000000
3.176471 3.000000 0.000000
2.941176 3.000000 0.000000
2.705882 3.000000 0.000000
2.470588 3.000000 0.000000
2.235294 3.000000 0.000000
2.000000 3.000000 0.000000
1.764706 3.000000 0.000000
1.529412 3.000000 0.000000
1.294118 3.000000 0.000000
1.058824 3.000000 0.000000
0.823529 3.000000 0.000000
0.588235 3.000000 0.000000
0.352941 3.000000 0.000000
0.117647 3.000000 0.000000
-0.117647 3.000000 0.000000
-0.352941 3.000000 0.000000
-0.588235 3.000000 0.000000
-0.823529 3.000000 0.000000
-1.058824 3.000000 0.000000
-1.294118 3.000000 0.000000
-1.529412 3.000000 0.000000
-1.764706 3.000000 0.000000
5.882353 3.000000 0.000000
5.647059 3.000000 0.000000
5.411765 3.000000 0.000000
5.176471 3.000000 0.000000
4.941176 3.000000 0.000000
4.705882 3.000000 0.000000
4.470588 3.000000 0.000000
4.235294 3.000000 0.000000
4.000000 3.000000 0.000000
3.764706 3.000000 0.000000
3.529412 3.000000 0.000000
3.294118 3.000000 0.000000
3.058824 3.000000 0.000000
2.823529 3.000000 0.000000
2.588235 3.000000 0.000000
2.352941 3.000000 0.000000
2.117647 3.000000 0.000000
1.882353 3.000000 0.000000
1.647059 3.000000 0.000000
1.411765 3.000000 0.000000
1.176471 3.000000 0.000000
0.941176 3.000000 0.000000
0.705882 3.000000 0.000000
0.470588 3.000000 0.000000
0.235294 3.000000 0.000000
0.000000 3.000000 0.000000
-0.235294 3.000000 0.000000
-0.470588 3.000000 0.000000
-0.705882 3.000000 0.000000
-0.941176 3.000000 0.000000
-1.176471 3.000000 0.000000
-1.411765 3.000000 0.000000
-1.647059 3.000000 0.000000
-1.882353 3.000000 0.000000
-2.000000 2.700000 0.000000
-2.000000 2.400000 0.000000
-2.000000 2.100000 0.000000
-2.000000 1.800000 0.000000
-2.000000 1.500000 0.000000
-2.000000 1.200000 0.000000
-2.000000 0.900000 0.000000
-2.000000 0.600000 0.000000
-2.000000 0.300000 0.000000
-2.000000 2.850000 0.000000
-2.000000 2.550000 0.000000
-2.000000 2.250000 0.000000
-2.000000 1.950000 0.000000
-2.000000 1.650000 0.000000
-2.000000 1.350000 0.000000
-2.000000 1.050000 0.000000
-2.000000 0.750000 0.000000
-2.000000 0.450000 0.000000
-2.000000 0.150000 0.000000
1.964119 1.449704 0.000000
1.058289 1.866560 0.000000
3.073590 1.972601 0.000000
4.379508 1.931243 0.000000
-0.380958 1.941324 0.000000
2.434416 0.776862 0.000000
1.496650 0.838663 0.000000
-0.957296 1.563625 0.000000
4.956241 1.542949 0.000000
3.683345 1.681923 0.000000
0.332220 1.659072 0.000000
2.267996 2.064368 0.000000
2.956725 1.290282 0.000000
1.111799 1.151897 0.000000
1.651734 2.007559 0.000000
0.548201 2.145653 0.000000
5.050908 2.168617 0.000000
-1.049806 2.180673 0.000000
4.309522 1.567352 0.000000
-0.318455 1.576828 0.000000
2.480302 1.790796 0.000000
5.534418 0.696998 0.000000
-1.532458 0.708811 0.000000
2.082176 0.384531 0.000000
-0.571226 1.444125 0.000000
4.563695 1.429725 0.000000
2.842520 2.283477 0.000000
1.487073 1.627079 0.000000
3.551655 1.306729 0.000000
0.465400 1.268299 0.000000
-0.864546 1.062261 0.000000
4.860736 1.049280 0.000000
1.946394 1.051404 0.000000
4.231637 2.409781 0.000000
-0.225416 2.413351 0.000000
2.809758 0.536959 0.000000
1.097072 0.680087 0.000000
2.456203 1.335017 0.000000
1.966234 2.378673 0.000000
2.471392 0.357726 0.000000
1.667305 0.383508 0.000000
-0.663567 1.679051 0.000000
4.661010 1.661083 0.000000
5.467530 1.834598 0.000000
-1.467363 1.843755 0.000000
1.640140 1.259448 0.000000
2.030508 1.881125 0.000000
5.377662 1.261206 0.000000
2.975601 0.803270 0.000000
4.762554 2.270806 0.000000
-0.761400 2.279674 0.000000
3.862079 1.988532 0.000000
0.153208 1.983291 0.000000
5.388045 2.402023 0.000000
-1.386005 2.406663 0.000000
3.510294 2.152616 0.000000
4.051804 1.335442 0.000000
2.710470 1.954876 0.000000
2.388194 2.564642 0.000000
0.862108 2.653736 0.000000
3.185008 2.604280 0.000000
2.711881 1.055048 0.000000
3.185838 1.540159 0.000000
0.864666 1.437783 0.000000
1.372455 1.926092 0.000000
1.367323 2.566004 0.000000
3.156300 2.253518 0.000000
1.027678 2.272601 0.000000
2.736227 0.317866 0.000000
1.280297 0.347100 0.000000
5.308482 0.332453 0.000000
-1.307035 0.338174 0.000000
4.921179 2.611791 0.000000
-0.919000 2.615820 0.000000
5.133884 0.667704 0.000000
-1.134202 0.677269 0.000000
4.110323 1.768533 0.000000
-0.115494 1.771063 0.000000
3.623760 2.546876 0.000000
0.406287 2.557435 0.000000
-1.377900 1.274749 0.000000
1.780109 1.736285 0.000000
5.044788 1.880808 0.000000
-1.044261 1.896644 0.000000
-0.057200 1.332145 0.000000
2.703441 1.534578 0.000000
3.363246 1.828705 0.000000
0.697245 1.773580 0.000000
1.177908 1.548779 0.000000
4.600617 2.702777 0.000000
-0.598066 2.704733 0.000000
4.702902 1.941767 0.000000
-0.702064 1.957283 0.000000
1.990755 0.770756 0.000000
3.212403 1.044827 0.000000
0.831074 0.970815 0.000000
1.296115 1.313131 0.000000
2.231466 1.615391 0.000000
2.918232 1.744832 0.000000
-1.589011 0.376809 0.000000
5.595569 0.364275 0.000000
1.874924 2.070882 0.000000
1.178478 2.743687 0.000000
-0.456308 1.729660 0.000000
4.452105 1.714168 0.000000
1.319141 2.158028 0.000000
-0.810086 1.367469 0.000000
4.804334 1.348004 0.000000
1.550203 2.286769 0.000000
3.929808 1.595784 0.000000
0.064215 1.590914 0.000000
2.782130 2.614966 0.000000
-0.447368 1.195019 0.000000
4.440943 1.186719 0.000000
2.875683 2.067784 0.000000
2.547573 2.216729 0.000000
2.182563 1.159701 0.000000
2.881659 0.672743 0.000000
2.937510 0.425039 0.000000
3.090372 0.691347 0.000000
3.003860 0.560746 0.000000
1.864806 1.593727 0.000000
1.637637 1.676276 0.000000
1.556760 1.466279 0.000000
1.819280 1.365729 0.000000
1.718562 1.522533 0.000000
1.775440 0.794054 0.000000
1.961308 0.939217 0.000000
1.832276 1.123547 0.000000
1.573507 1.054911 0.000000
1.779298 0.978723 0.000000
2.310621 2.774700 0.000000
1.867123 2.659606 0.000000
2.188690 2.501559 0.000000
2.090360 2.736112 0.000000
5.131868 2.540271 0.000000
5.471091 2.723096 0.000000
4.996525 2.800177 0.000000
5.223606 2.761564 0.000000
[...]
POINT_DATA 1841
VECTORS sol double
-2.666667 +0.000000 0
-11.520000 +0.000000 0
+0.684806 +11.828798 0
+13.333333 +0.000000 0
+13.333333 +0.000000 0
+0.684806 -11.828798 0
-11.520000 +0.000000 0
-2.666667 +0.000000 0
-0.273517 -0.648789 0
-0.273517 +0.648789 0
-3.555418 +0.000000 0
-4.936639 +0.000000 0
-7.244626 +0.000000 0
-3.065665 +0.000000 0
-4.165119 +0.000000 0
-5.931748 +0.000000 0
-9.024611 +0.000000 0
-11.370598 +1.862107 0
-10.925988 +3.677827 0
-10.196861 +5.401919 0
-9.200736 +6.991397 0
-7.961517 +8.406601 0
-6.508887 +9.612180 0
-4.877563 +10.577987 0
-3.106422 +11.279857 0
-1.237545 +11.700256 0
-11.482593 +0.933966 0
-11.184690 +2.778633 0
-10.596050 +4.554079 0
-9.730822 +6.216054 0
-8.609785 +7.723105 0
-7.259817 +9.037609 0
-5.713219 +10.126714 0
-4.006903 +10.963172 0
-2.181473 +11.526062 0
-0.280230 +11.801368 0
+2.615213 +11.662615 0
+4.508076 +11.206575 0
+6.318484 +10.473323 0
+8.002892 +9.483090 0
+9.519610 +8.263172 0
+10.829177 +6.846938 0
+11.894888 +5.272246 0
+12.683910 +3.579362 0
+13.169385 +1.808813 0
+1.651859 +11.782426 0
+3.569169 +11.470218 0
+5.426347 +10.873510 0
+7.179092 +10.008780 0
+8.784735 +8.899883 0
+10.202655 +7.577311 0
+11.394677 +6.076912 0
+12.325835 +4.438029 0
+12.965959 +2.701299 0
+13.292244 +0.906781 0
+9.863946 +0.000000 0
+7.897597 +0.000000 0
+6.770833 +0.000000 0
+6.183043 +0.000000 0
+6.000000 +0.000000 0
+6.183043 +0.000000 0
+6.770833 +0.000000 0
+7.897597 +0.000000 0
+9.863946 +0.000000 0
+11.344228 +0.000000 0
+8.746682 +0.000000 0
+7.253333 +0.000000 0
+6.420680 +0.000000 0
+6.045188 +0.000000 0
+6.045188 +0.000000 0
+6.420680 +0.000000 0
+7.253333 +0.000000 0
+8.746682 +0.000000 0
+11.344228 +0.000000 0
+13.169385 -1.808813 0
+12.683910 -3.579362 0
+11.894888 -5.272246 0
+10.829177 -6.846938 0
+9.519610 -8.263172 0
+8.002892 -9.483090 0
+6.318484 -10.473323 0
+4.508076 -11.206575 0
+2.615213 -11.662615 0
+13.292244 -0.906781 0
+12.965959 -2.701299 0
+12.325835 -4.438029 0
+11.394677 -6.076912 0
+10.202655 -7.577311 0
+8.784735 -8.899883 0
+7.179092 -10.008780 0
+5.426347 -10.873510 0
+3.569169 -11.470218 0
+1.651859 -11.782426 0
-1.237545 -11.700256 0
-3.106422 -11.279857 0
-4.877563 -10.577987 0
-6.508887 -9.612180 0
-7.961517 -8.406601 0
-9.200736 -6.991397 0
-10.196861 -5.401919 0
-10.925988 -3.677827 0
-11.370598 -1.862107 0
-0.280230 -11.801368 0
-2.181473 -11.526062 0
-4.006903 -10.963172 0
-5.713219 -10.126714 0
-7.259817 -9.037609 0
-8.609785 -7.723105 0
-9.730822 -6.216054 0
-10.596050 -4.554079 0
-11.184690 -2.778633 0
-11.482593 -0.933966 0
-7.244626 +0.000000 0
-4.936639 +0.000000 0
-3.555418 +0.000000 0
-9.024611 +0.000000 0
-5.931748 +0.000000 0
-4.165119 +0.000000 0
-3.065665 +0.000000 0
-2.569438 -0.418624 0
-2.307824 -0.758026 0
-1.952672 -0.975420 0
-1.577240 -1.072059 0
-1.231642 -1.075910 0
-0.939066 -1.020907 0
-0.703766 -0.935153 0
-0.520308 -0.837813 0
-0.379875 -0.740338 0
-2.641843 -0.214789 0
-2.455258 -0.602014 0
-2.137003 -0.882794 0
-1.763682 -1.037438 0
-1.398699 -1.083412 0
-1.078135 -1.053804 0
-0.814460 -0.980470 0
-0.606079 -0.887062 0
-0.445292 -0.788614 0
-0.322957 -0.693594 0
-0.250184 -0.722637 0
-0.214134 -0.798228 0
-0.163307 -0.872430 0
-0.096223 -0.941100 0
-0.012417 -0.999252 0
+0.087155 -1.041455 0
+0.199876 -1.062469 0
+0.321512 -1.058012 0
+0.446615 -1.025463 0
+0.569224 -0.964289 0
+0.683662 -0.876063 0
+0.785225 -0.764055 0
+0.870560 -0.632574 0
+0.937688 -0.486259 0
+0.985730 -0.329533 0
+1.014494 -0.166312 0
+1.024062 -0.000000 0
+1.014494 +0.166312 0
+0.985730 +0.329533 0
+0.937688 +0.486259 0
+0.870560 +0.632574 0
+0.785225 +0.764055 0
+0.683662 +0.876063 0
+0.569224 +0.964289 0
+0.446615 +1.025463 0
+0.321512 +1.058012 0
+0.199876 +1.062469 0
+0.087155 +1.041455 0
-0.012417 +0.999252 0
-0.096223 +0.941100 0
-0.163307 +0.872430 0
-0.214134 +0.798228 0
-0.250184 +0.722637 0
-0.263300 -0.685339 0
-0.233886 -0.760387 0
-0.190679 -0.835739 0
-0.131855 -0.907752 0
-0.056388 -0.971827 0
+0.035522 -1.022688 0
+0.142102 -1.054909 0
+0.259899 -1.063634 0
+0.384000 -1.045333 0
+0.508602 -0.998402 0
+0.627787 -0.923386 0
+0.736296 -0.822778 0
+0.830075 -0.700458 0
+0.906476 -0.560985 0
+0.964118 -0.408940 0
+1.002519 -0.248511 0
+1.021671 -0.083345 0
+1.021671 +0.083345 0
+1.002519 +0.248511 0
+0.964118 +0.408940 0
+0.906476 +0.560985 0
+0.830075 +0.700458 0
+0.736296 +0.822778 0
+0.627787 +0.923386 0
+0.508602 +0.998402 0
+0.384000 +1.045333 0
+0.259899 +1.063634 0
+0.142102 +1.054909 0
+0.035522 +1.022688 0
-0.056388 +0.971827 0
-0.131855 +0.907752 0
-0.190679 +0.835739 0
-0.233886 +0.760387 0
-0.263300 +0.685339 0
-0.379875 +0.740338 0
-0.520308 +0.837813 0
-0.703766 +0.935153 0
-0.939066 +1.020907 0
-1.231642 +1.075910 0
-1.577240 +1.072059 0
-1.952672 +0.975420 0
-2.307824 +0.758026 0
-2.569438 +0.418624 0
-0.322957 +0.693594 0
-0.445292 +0.788614 0
-0.606079 +0.887062 0
-0.814460 +0.980470 0
-1.078135 +1.053804 0
-1.398699 +1.083412 0
-1.763682 +1.037438 0
-2.137003 +0.882794 0
-2.455258 +0.602014 0
-2.641843 +0.214789 0
+4.901378 +0.132120 0
+3.217090 +2.794828 0
+2.757801 -2.896299 0
-0.265209 -4.332756 0
-0.257715 +4.290073 0
+7.074168 -1.692975 0
+7.011287 +2.054427 0
-2.071092 +4.279228 0
-2.137617 -4.339214 0
+1.962703 -5.444399 0
+2.060170 +5.533320 0
+3.118511 -0.679279 0
+5.296348 -4.194169 0
+6.010393 +4.067770 0
+3.247041 +0.924208 0
+1.774727 +3.153350 0
-0.823829 -2.566056 0
-0.806676 +2.541838 0
-0.580997 -6.197209 0
-0.597272 +6.126511 0
+3.806159 -1.496650 0
-4.228764 -2.230454 0
-4.204810 +2.258072 0
+6.955004 -0.186045 0
-1.840473 +6.145912 0
-1.871131 -6.246346 0
+2.276761 -1.718533 0
+4.293318 +1.773463 0
+3.558877 -7.260047 0
+3.810149 +7.433255 0
-4.419450 +6.128041 0
-4.509224 -6.187412 0
+6.052444 +0.212231 0
+0.259475 -2.707877 0
+0.268558 +2.698085 0
+9.214901 -3.178081 0
+8.814933 +4.214369 0
+5.270178 -1.797098 0
+2.366271 +0.063926 0
+7.875955 -1.114334 0
+7.388052 +0.789397 0
-1.341702 +4.820499 0
-1.383370 -4.897917 0
-1.381296 -2.263309 0
-1.365481 +2.252588 0
+5.509356 +1.431848 0
+3.644635 -0.088749 0
-2.877911 -3.150870 0
+8.167175 -4.926007 0
-0.480647 -2.733939 0
-0.470151 +2.711650 0
+1.063332 -4.214582 0
+1.106591 +4.226377 0
-0.635671 -1.651839 0
-0.630947 +1.647984 0
+1.657685 -3.215344 0
+0.410697 -8.158468 0
+3.198581 -1.967314 0
+1.889111 -0.587992 0
+1.329439 +1.429836 0
+1.371857 -1.585118 0
+6.425341 -3.164918 0
+3.864046 -4.549179 0
+4.371926 +4.677328 0
+3.337329 +1.777612 0
+1.799441 +0.945943 0
+2.021443 -2.359970 0
+2.184696 +1.985030 0
+9.496280 -1.857715 0
+9.309770 +1.931721 0
-6.723142 -1.941311 0
-6.722802 +1.974886 0
-0.291002 -1.766688 0
-0.286786 +1.759779 0
-6.494870 -4.198128 0
-6.431333 +4.218638 0
+0.365334 -5.299601 0
+0.348981 +5.284729 0
+1.004899 -2.126751 0
+1.028799 +2.076096 0
-2.833443 +3.140570 0
+4.038956 +0.704179 0
-1.307004 -3.225081 0
-1.274819 +3.189554 0
+0.372791 +8.183753 0
+4.508510 -2.603891 0
+2.585023 -4.074535 0
+2.862930 +4.114632 0
+4.369606 +3.052227 0
-0.028712 -1.748183 0
-0.025995 +1.744426 0
-0.856168 -3.795106 0
-0.828859 +3.746184 0
+6.680577 +0.033649 0
+6.363306 -6.487553 0
+6.980332 +6.359549 0
+5.334728 +2.904722 0
+4.395344 -0.793998 0
+3.607936 -2.996687 0
-4.585531 +1.293299 0
-4.558494 -1.240743 0
+3.126052 +0.315331 0
+1.363225 +0.936184 0
-0.747090 +5.087309 0
-0.765062 -5.166308 0
+2.692657 +1.582462 0
-2.670711 +5.474892 0
-2.750441 -5.570453 0
+2.501928 +0.930122 0
+1.068177 -6.258668 0
+1.043941 +6.292502 0
+1.627409 -1.083332 0
-2.469805 +8.175153 0
-2.481968 -8.268840 0
+2.755295 -2.193393 0
+2.627354 -1.209243 0
+5.775106 -0.725927 0
+8.782241 -4.041277 0
+10.710890 -3.552265 0
+9.360151 -5.880718 0
+10.160240 -4.729703 0
+4.468375 +0.467648 0
+4.188314 +1.208015 0
+4.832172 +1.655609 0
+5.156752 +0.687788 0
+4.672622 +1.013054 0
+6.744366 +0.842650 0
+6.333073 +0.150683 0
+5.875823 +0.667859 0
+6.209049 +1.761917 0
+6.296445 +0.877138 0
+1.460741 -0.347248 0
+1.726163 +0.178121 0
+2.069403 -0.310534 0
+1.565149 -0.108015 0
-0.446391 -1.723006 0
-0.377725 -1.147687 0
-0.195241 -1.336631 0
-0.300271 -1.269883 0
-0.193300 +1.333959 0
-0.376343 +1.146515 0
-0.441282 +1.716848 0
-0.298259 +1.267266 0
+5.797036 -2.428929 0
+5.556265 -1.282862 0
+6.294891 -1.186917 0
+6.811766 -2.504389 0
+6.115375 -1.846302 0
+5.156170 -7.024177 0
+3.854483 -5.631325 0
+4.595946 -4.483811 0
+5.778741 -5.245097 0
+4.844563 -5.612425 0
+6.474160 +5.085911 0
+5.229822 +4.554115 0
+4.260291 +5.786351 0
+5.622896 +7.108334 0
+5.411710 +5.690999 0
-0.304682 -7.022524 0
-1.158968 -8.518640 0
-2.153827 -7.143483 0
-1.217382 -6.361803 0
-1.205067 -7.307008 0
-1.214607 +6.271993 0
-2.128201 +7.034890 0
-1.190077 +8.455349 0
-0.342931 +6.972107 0
-1.218897 +7.210705 0
+6.923286 -0.097219 0
+7.442286 +1.367319 0
+6.994127 +0.287001 0
+7.021399 +0.591868 0
-0.706661 +5.486167 0
-0.996563 +4.994258 0
-1.586744 +5.428635 0
-1.134594 +5.551933 0
-1.632757 -5.521094 0
-1.023695 -5.070895 0
-0.710921 -5.563904 0
-1.156671 -5.639119 0
+7.255620 -0.650405 0
+7.602789 -1.419221 0
+6.772844 -0.712792 0
+7.115736 -0.753411 0
+1.219370 +1.751501 0
+1.043047 +1.101651 0
+0.778051 +1.513599 0
+0.931960 +1.314124 0
+3.632290 +0.851809 0
+3.312674 +1.332658 0
+3.793327 +1.811226 0
+3.731925 +1.306678 0
+4.810730 -1.256169 0
+4.656384 -0.358839 0
+5.330661 -0.277265 0
+5.087650 -0.786995 0
-5.589782 +7.824221 0
-5.651475 +5.225383 0
-7.775351 +5.453701 0
-6.779024 +6.692555 0
-7.824148 -5.444939 0
-5.732236 -5.235121 0
-5.646654 -7.861814 0
-6.850546 -6.709808 0
-6.042873 -0.871266 0
-8.602222 -2.640834 0
-8.227886 -1.248832 0
-8.595322 +2.662889 0
-6.057818 +0.891439 0
-8.228935 +1.261162 0
+5.937721 -0.183223 0
+5.568801 +0.245463 0
+0.772682 -1.538489 0
+1.072819 -1.170173 0
+1.210784 -1.850014 0
+0.937122 -1.360190 0
+5.439317 +2.368877 0
+5.604129 +3.326135 0
+6.613724 +3.261195 0
+5.993262 +2.655792 0
+8.883786 +0.896438 0
+10.838838 +2.650747 0
+10.682406 +1.281231 0
+6.720182 -0.167404 0
+8.005921 -0.682663 0
+7.164912 -0.416074 0
-0.605623 +1.213399 0
-1.211800 +1.650226 0
-0.974030 +1.949856 0
-0.872386 +1.445571 0
-0.984483 -1.958716 0
-1.218239 -1.653311 0
-0.607236 -1.214074 0
-0.876008 -1.447612 0
+0.670753 -3.576704 0
+0.730812 -2.406291 0
+1.295549 -2.694022 0
+1.385159 -3.699899 0
+1.001413 -3.096471 0
+1.459975 +3.691443 0
+1.359327 +2.625580 0
+0.752504 +2.387882 0
+0.694342 +3.570992 0
+1.045909 +3.074157 0
+9.448064 -2.399116 0
+10.422349 -1.519924 0
+10.927941 -2.424073 0
+9.249307 +3.049783 0
+9.811915 +5.415066 0
+10.512963 +4.047226 0
+8.046133 +5.352398 0
+7.505402 +7.825283 0
+8.803566 +6.703497 0
+7.202134 -4.001044 0
+8.058356 -2.571004 0
+7.682563 -3.265309 0
+7.882504 +3.145328 0
+7.305910 +4.175384 0
-3.840558 -4.469923 0
-5.289153 -3.144826 0
-3.708782 -2.770485 0
-4.669246 -3.914000 0
-3.670275 +2.780337 0
-5.243591 +3.173631 0
-3.758562 +4.441421 0
-4.599418 +3.914707 0
+4.913839 -2.243825 0
+4.153282 -2.003738 0
+4.110270 -1.173972 0
+4.496731 -1.665043 0
-0.772510 -2.232468 0
-1.004273 -2.819974 0
-1.406314 -2.798230 0
-1.035036 -2.437118 0
-1.379586 +2.775021 0
-0.980650 +2.789319 0
-0.759901 +2.216559 0
-1.017986 +2.419067 0
+4.884508 -3.323995 0
+3.760486 -3.689002 0
+4.062577 -2.859266 0
+4.332549 -3.585887 0
+5.918684 -3.737736 0
+5.376108 -2.928444 0
+8.732050 -1.548574 0
+8.385185 -2.013099 0
+8.151981 +1.330749 0
+8.200333 +2.184652 0
-2.424228 -5.918827 0
-2.525932 -5.016620 0
-1.758554 -4.653756 0
-2.082861 -5.278563 0
-1.703492 +4.577623 0
-2.444992 +4.941512 0
-2.363550 +5.816185 0
-2.019251 +5.187505 0
+2.946221 +1.686628 0
+2.873674 +0.934499 0
+2.609586 +1.308348 0
+2.935888 +1.318927 0
+3.561421 +4.488129 0
+4.383116 +3.789244 0
+3.778466 +2.984268 0
+3.075833 +3.419675 0
+3.704978 +3.683385 0
+2.400255 +0.534257 0
+3.174658 +0.561068 0
+2.865150 +0.221112 0
+2.820310 +0.559370 0
+7.362514 -5.764452 0
+6.567335 -4.682079 0
+0.340044 -1.723452 0
+0.570057 -1.691915 0
+0.344411 +1.716952 0
+0.576418 +1.682932 0
+2.086221 -3.676334 0
+1.866387 -2.762434 0
+2.376797 -2.671167 0
+2.711006 -3.440710 0
+2.261933 -3.139202 0
+9.217782 -0.998480 0
+6.957638 +0.323826 0
+7.672779 +0.590872 0
+0.723207 -4.751000 0
+0.037408 -4.761280 0
+0.002569 -3.691995 0
+0.350955 -4.163704 0
+0.010235 +3.668471 0
+0.030242 +4.733329 0
+0.732818 +4.760348 0
+0.357922 +4.152121 0
-1.699371 -3.734179 0
-2.516004 -3.921093 0
-1.930727 -2.626118 0
-1.908494 -3.275614 0
-1.903646 +2.614038 0
-2.454205 +3.882526 0
-1.652740 +3.689452 0
-1.866305 +3.246916 0
+2.702330 +2.486170 0
+2.013355 +2.605367 0
+2.274406 +3.654097 0
+2.513957 +3.037471 0
+1.750165 -0.839180 0
+1.283633 -0.772589 0
+1.371941 -0.564807 0
+4.005316 -0.405257 0
+3.859665 +0.275285 0
+4.247041 -0.000091 0
-3.206442 +5.685855 0
-2.993115 +4.723866 0
-3.292190 -5.773928 0
-3.081854 -4.780915 0
-3.561396 +7.464382 0
-2.872055 +6.513338 0
-3.622178 -7.563291 0
-2.928898 -6.620512 0
-3.245697 +1.443440 0
-3.859716 +0.708916 0
-4.491216 +1.694788 0
-3.532056 +1.013751 0
-4.485255 -1.646534 0
-3.843775 -0.687382 0
-3.252544 -1.427838 0
-3.519409 -0.985681 0
+2.349491 -4.773616 0
+1.494902 -4.817014 0
+1.830158 -4.251342 0
+1.553677 +4.858109 0
+2.532508 +4.854093 0
+1.952065 +4.273233 0
+3.331829 +0.158705 0
+3.391177 -0.398375 0
+2.770338 -0.328535 0
+3.072659 -0.083401 0
+1.677508 +1.724342 0
+1.574974 +2.181029 0
+1.537747 +0.555766 0
+2.131190 +0.936775 0
+1.934091 +0.534472 0
+1.687083 -1.990059 0
+1.517370 -2.326779 0
-0.379562 -2.232538 0
-0.689981 -2.640320 0
-0.571634 -2.194068 0
-0.674704 +2.614360 0
-0.370858 +2.219972 0
-0.562426 +2.180182 0
-0.562024 -4.030533 0
-0.632420 -3.260107 0
-0.200723 -2.790667 0
-0.336793 -3.432056 0
-0.192604 +2.773213 0
-0.617520 +3.225690 0
-0.541468 +3.980808 0
-0.318814 +3.395835 0
+4.349059 +2.391026 0
+3.303110 +2.261148 0
+3.808965 +2.374272 0
+7.094287 -7.893028 0
+8.335550 -6.951437 0
+0.026916 -1.450860 0
-0.140116 -1.776128 0
-0.083310 -1.383148 0
-0.136047 +1.772249 0
+0.028603 +1.451021 0
-0.081952 +1.381997 0
+1.187412 +0.736026 0
+1.529988 +0.945802 0
+1.302114 +0.619006 0
-2.238314 +1.943737 0
-1.665089 +1.844486 0
-2.253110 -1.943845 0
-1.676040 -1.847636 0
+3.173679 -4.385194 0
+2.554722 -6.197736 0
+3.002599 -5.279887 0
+2.699098 +6.338948 0
+3.273196 +5.419317 0
+0.035171 -2.030307 0
-0.164621 -2.227792 0
+0.039200 +2.025551 0
-0.161391 +2.215065 0
+3.505087 +0.466127 0
-0.545876 -4.844193 0
-1.117673 -4.334055 0
-0.813231 -4.565735 0
-1.081397 +4.271319 0
-0.534349 +4.778583 0
-0.786446 +4.500373 0
+0.154404 +1.589083 0
+0.153298 -1.594280 0
+0.559947 -9.998024 0
-2.821966 -9.653911 0
-1.171975 -9.993972 0
-2.820110 +9.587003 0
+0.531075 +10.022446 0
-1.202662 +9.958187 0
-6.850147 -3.079033 0
-8.427499 -4.068537 0
-6.821934 +3.114575 0
-8.397000 +4.086511 0
+2.859316 -0.951087 0
+2.280224 -0.879737 0
+2.497376 -0.605116 0
+2.432657 -1.458880 0
+1.961747 -1.404674 0
+2.107727 -1.141754 0
-0.054551 -5.808082 0
-0.313927 -5.256474 0
-0.077137 +5.764372 0
-0.321003 +5.195086 0
+6.651471 +0.075142 0
-1.112454 -3.544658 0
-0.862877 -3.074722 0
-1.080041 +3.499298 0
-0.840662 +3.039543 0
+1.506334 -1.329495 0
+2.148560 -2.012510 0
+1.828178 -1.683577 0
+3.172831 -3.013316 0
+2.765891 -2.467553 0
+2.933928 -2.112701 0
+3.423779 -2.434625 0
+3.081286 -2.510785 0
+1.983272 +1.375102 0
+1.368114 +1.136052 0
+1.654353 +1.306124 0
+3.495525 -1.761090 0
+3.786614 -2.261980 0
+2.051324 -8.089827 0
+0.932156 -6.892888 0
+1.475217 -5.977726 0
+1.771389 -6.825647 0
+1.494235 +6.041282 0
+0.903518 +6.925410 0
+2.091966 +8.215230 0
+1.808079 +6.934268 0
+3.463578 -1.062266 0
+3.741491 -0.756529 0
-4.276382 +8.830386 0
-4.315058 -8.901388 0
-1.424752 -4.071043 0
-1.380126 +4.014261 0
+3.212880 -3.633996 0
+1.186392 -0.974156 0
+2.932762 -1.567816 0
+3.188361 -1.331648 0
+1.117462 +0.899356 0
+2.525844 +1.736756 0
+2.305941 +1.350658 0
+2.858651 +2.052141 0
+2.559534 -1.999937 0
+2.460723 -2.289307 0
+4.934720 +2.999659 0
+5.048740 +3.695738 0
+4.899967 +2.341257 0
+0.739612 -5.857157 0
+0.320856 -6.429313 0
+0.714340 +5.868129 0
+0.284196 +6.425287 0
-5.340236 -1.475639 0
-5.541710 -2.314440 0
-5.361532 +1.527867 0
-5.524933 +2.359685 0
+2.715472 -1.778231 0
+1.118204 -5.345530 0
+1.125296 +5.375118 0
-4.629087 +0.684912 0
-4.612193 -0.665801 0
+6.341012 -0.509960 0
-2.823423 -1.794019 0
+4.038608 -9.249954 0
+5.640715 -8.644888 0
+2.327909 -9.724032 0
-2.809729 +1.800809 0
-0.401256 +0.957819 0
-0.401600 -0.957012 0
+4.194007 +9.369209 0
+2.360221 +9.831517 0
+5.945162 +8.715419 0
+8.509683 -4.500917 0
+9.414260 -4.381627 0
+9.814763 -5.338133 0
+8.718460 -5.384250 0
+9.034980 -3.622256 0
+9.896630 -3.379507 0
+10.495620 -4.164635 0
+11.618170 -3.606760 0
+10.961341 -5.009252 0
+10.041409 -6.347384 0
+4.685275 +0.305789 0
+4.570186 +0.734809 0
+4.917242 +0.857398 0
+5.027626 +0.405306 0
+4.253502 +0.591981 0
+4.114579 +0.951027 0
+4.430872 +1.117716 0
+4.242468 +1.485305 0
+4.562714 +1.722983 0
+4.752310 +1.327401 0
+5.175375 +1.556615 0
+5.326776 +1.051292 0
+6.857299 +1.417004 0
+6.535723 +0.867086 0
+6.256602 +1.311225 0
+6.601396 +1.925359 0
+6.689658 +0.430286 0
+6.519942 +0.090779 0
+6.307236 +0.509472 0
+6.197350 +0.181690 0
+5.964260 +0.439620 0
+6.088613 +0.775329 0
+5.700619 +1.052592 0
+5.853427 +1.602390 0
+1.673055 -0.459311 0
+1.515876 -0.232040 0
+1.814284 -0.197857 0
+1.981881 -0.455945 0
+1.236099 -0.248626 0
+1.291502 -0.042905 0
+1.362804 +0.187637 0
+1.649099 +0.027007 0
+2.039845 +0.134291 0
+2.220744 -0.136955 0
-0.372336 -1.753353 0
-0.369785 -1.486443 0
-0.251247 -1.308444 0
-0.241929 -1.544799 0
-0.548571 -1.704862 0
-0.494449 -1.386230 0
-0.343987 -1.213809 0
-0.290685 -0.965659 0
-0.228853 -1.063626 0
-0.144758 -1.133401 0
-0.238949 +1.540107 0
-0.249263 +1.305775 0
-0.366403 +1.482128 0
-0.367623 +1.746722 0
-0.143868 +1.132022 0
-0.227933 +1.062276 0
-0.290047 +0.964985 0
-0.342282 +1.211966 0
-0.491652 +1.383746 0
-0.543584 +1.699869 0
+6.092986 -2.787058 0
+5.966896 -2.140620 0
+6.440496 -2.172865 0
+6.638680 -2.840175 0
+5.522617 -2.105446 0
+5.418648 -1.543078 0
+5.825015 -1.561766 0
+5.668541 -1.005080 0
+6.030114 -0.958366 0
+6.210791 -1.513779 0
+6.668555 -1.456166 0
+6.972101 -2.095394 0
+5.773911 -6.800367 0
+5.003165 -6.275106 0
+5.319700 -5.459729 0
+6.057570 -5.832080 0
+4.351708 -7.215465 0
+3.753092 -6.408953 0
+4.341741 -5.650610 0
+3.874327 -5.069063 0
+4.227173 -4.535002 0
+4.723452 -5.020324 0
+4.951337 -4.357951 0
+5.527952 -4.693966 0
+6.720917 +5.687348 0
+5.964103 +5.430085 0
+5.527890 +6.358808 0
+6.328532 +6.791230 0
+6.233589 +4.552652 0
+5.634137 +4.335175 0
+5.327926 +5.096536 0
+4.799119 +4.640262 0
+4.336396 +5.213783 0
+4.829104 +5.777458 0
+4.091976 +6.581819 0
+4.713031 +7.363938 0
-0.460246 -6.600505 0
-0.741958 -7.189602 0
-1.219731 -6.815828 0
-0.893254 -6.295218 0
+0.005973 -7.585123 0
-0.347100 -8.406266 0
-1.195514 -7.882944 0
-1.831052 -8.446761 0
-2.312784 -7.678808 0
-1.686046 -7.259694 0
-2.007612 -6.675941 0
-1.548266 -6.323416 0
-0.900816 +6.214496 0
-1.224364 +6.722694 0
-0.770238 +7.115700 0
-0.487072 +6.538624 0
-1.531975 +6.227193 0
-1.979097 +6.571655 0
-1.680726 +7.155240 0
-2.293151 +7.576811 0
-1.842355 +8.365636 0
-1.217651 +7.801040 0
-0.388006 +8.388498 0
-0.035529 +7.569436 0
+6.970546 -0.154196 0
+6.935425 +0.241674 0
+7.046239 +0.431595 0
+6.930287 +0.048802 0
+6.825123 -0.037672 0
+6.911444 +0.719261 0
+7.285307 +1.724634 0
+7.190610 +0.963994 0
+7.465529 +1.074034 0
+7.143716 +0.531217 0
-0.659760 +5.798659 0
-0.919263 +5.527881 0
-1.176335 +5.899773 0
-0.729606 +5.283255 0
-0.874019 +5.044897 0
-1.063767 +5.265358 0
-1.174546 +4.915818 0
-1.458881 +5.115284 0
-1.364805 +5.501962 0
-1.708702 +5.774576 0
-1.189699 -5.988426 0
-0.932107 -5.610838 0
-0.654419 -5.873512 0
-1.747938 -5.870775 0
-1.398745 -5.592674 0
-1.502678 -5.199773 0
-1.209027 -4.993341 0
-1.088689 -5.347005 0
-0.896667 -5.122923 0
-0.741108 -5.361826 0
+7.061315 -0.414568 0
+7.214930 -0.720284 0
+6.983390 -0.421570 0
+7.520415 -0.875115 0