# vtk DataFile Version 2.0
MyTitle
ASCII
DATASET UNSTRUCTURED_GRID
POINTS 1792 double
0.707107 0.707107 0.000000
-0.707107 0.707107 0.000000
-0.707107 -0.707107 0.000000
0.707107 -0.707107 0.000000
-5.000000 -5.000000 0.000000
5.000000 -5.000000 0.000000
5.000000 5.000000 0.000000
-5.000000 5.000000 0.000000
0.555570 0.831470 0.000000
0.382683 0.923880 0.000000
0.195090 0.980785 0.000000
0.000000 1.000000 0.000000
-0.195090 0.980785 0.000000
-0.382683 0.923880 0.000000
-0.555570 0.831470 0.000000
0.634393 0.773010 0.000000
0.471397 0.881921 0.000000
0.290285 0.956940 0.000000
0.098017 0.995185 0.000000
-0.098017 0.995185 0.000000
-0.290285 0.956940 0.000000
-0.471397 0.881921 0.000000
-0.634393 0.773010 0.000000
-0.831470 0.555570 0.000000
-0.923880 0.382683 0.000000
-0.980785 0.195090 0.000000
-1.000000 0.000000 0.000000
-0.980785 -0.195090 0.000000
-0.923880 -0.382683 0.000000
-0.831470 -0.555570 0.000000
-0.773010 0.634393 0.000000
-0.881921 0.471397 0.000000
-0.956940 0.290285 0.000000
-0.995185 0.098017 0.000000
-0.995185 -0.098017 0.000000
-0.956940 -0.290285 0.000000
-0.881921 -0.471397 0.000000
-0.773010 -0.634393 0.000000
-0.555570 -0.831470 0.000000
-0.382683 -0.923880 0.000000
-0.195090 -0.980785 0.000000
-0.000000 -1.000000 0.000000
0.195090 -0.980785 0.000000
0.382683 -0.923880 0.000000
0.555570 -0.831470 0.000000
-0.634393 -0.773010 0.000000
-0.471397 -0.881921 0.000000
-0.290285 -0.956940 0.000000
-0.098017 -0.995185 0.000000
0.098017 -0.995185 0.000000
0.290285 -0.956940 0.000000
0.471397 -0.881921 0.000000
0.634393 -0.773010 0.000000
0.831470 -0.555570 0.000000
0.923880 -0.382683 0.000000
0.980785 -0.195090 0.000000
1.000000 -0.000000 0.000000
0.980785 0.195090 0.000000
0.923880 0.382683 0.000000
0.831470 0.555570 0.000000
0.773010 -0.634393 0.000000
0.881921 -0.471397 0.000000
0.956940 -0.290285 0.000000
0.995185 -0.098017 0.000000
0.995185 0.098017 0.000000
0.956940 0.290285 0.000000
0.881921 0.471397 0.000000
0.773010 0.634393 0.000000
5.000000 -3.750000 0.000000
5.000000 -2.500000 0.000000
5.000000 -1.250000 0.000000
5.000000 -0.000000 0.000000
5.000000 1.250000 0.000000
5.000000 2.500000 0.000000
5.000000 3.750000 0.000000
5.000000 -4.375000 0.000000
5.000000 -3.125000 0.000000
5.000000 -1.875000 0.000000
5.000000 -0.625000 0.000000
5.000000 0.625000 0.000000
5.000000 1.875000 0.000000
5.000000 3.125000 0.000000
5.000000 4.375000 0.000000
3.750000 5.000000 0.000000
2.500000 5.000000 0.000000
1.250000 5.000000 0.000000
0.000000 5.000000 0.000000
-1.250000 5.000000 0.000000
-2.500000 5.000000 0.000000
-3.750000 5.000000 0.000000
4.375000 5.000000 0.000000
3.125000 5.000000 0.000000
1.875000 5.000000 0.000000
0.625000 5.000000 0.000000
-0.625000 5.000000 0.000000
-1.875000 5.000000 0.000000
-3.125000 5.000000 0.000000
-4.375000 5.000000 0.000000
-5.000000 3.750000 0.000000
-5.000000 2.500000 0.000000
-5.000000 1.250000 0.000000
-5.000000 0.000000 0.000000
-5.000000 -1.250000 0.000000
-5.000000 -2.500000 0.000000
-5.000000 -3.750000 0.000000
-5.000000 4.375000 0.000000
-5.000000 3.125000 0.000000
-5.000000 1.875000 0.000000
-5.000000 0.625000 0.000000
-5.000000 -0.625000 0.000000
-5.000000 -1.875000 0.000000
-5.000000 -3.125000 0.000000
-5.000000 -4.375000 0.000000
-3.750000 -5.000000 0.000000
-2.500000 -5.000000 0.000000
-1.250000 -5.000000 0.000000
-0.000000 -5.000000 0.000000
1.250000 -5.000000 0.000000
2.500000 -5.000000 0.000000
3.750000 -5.000000 0.000000
-4.375000 -5.000000 0.000000
-3.125000 -5.000000 0.000000
-1.875000 -5.000000 0.000000
-0.625000 -5.000000 0.000000
0.625000 -5.000000 0.000000
1.875000 -5.000000 0.000000
3.125000 -5.000000 0.000000
4.375000 -5.000000 0.000000
0.810307 -0.810307 0.000000
0.913507 -0.913507 0.000000
1.037347 -1.037347 0.000000
1.161187 -1.161187 0.000000
1.309795 -1.309795 0.000000
1.458403 -1.458403 0.000000
1.636732 -1.636732 0.000000
1.815062 -1.815062 0.000000
2.029057 -2.029057 0.000000
2.243053 -2.243053 0.000000
2.499848 -2.499848 0.000000
2.756642 -2.756642 0.000000
3.064796 -3.064796 0.000000
3.372949 -3.372949 0.000000
3.742734 -3.742734 0.000000
4.112518 -4.112518 0.000000
4.556259 -4.556259 0.000000
0.758707 -0.758707 0.000000
0.861907 -0.861907 0.000000
0.975427 -0.975427 0.000000
1.099267 -1.099267 0.000000
1.235491 -1.235491 0.000000
1.384099 -1.384099 0.000000
1.547568 -1.547568 0.000000
1.725897 -1.725897 0.000000
1.922060 -1.922060 0.000000
2.136055 -2.136055 0.000000
2.371450 -2.371450 0.000000
2.628245 -2.628245 0.000000
2.910719 -2.910719 0.000000
3.218873 -3.218873 0.000000
3.557841 -3.557841 0.000000
3.927626 -3.927626 0.000000
4.334388 -4.334388 0.000000
4.778129 -4.778129 0.000000
0.810307 0.810307 0.000000
0.913507 0.913507 0.000000
1.037347 1.037347 0.000000
1.161187 1.161187 0.000000
1.309795 1.309795 0.000000
1.458403 1.458403 0.000000
1.636732 1.636732 0.000000
1.815062 1.815062 0.000000
2.029057 2.029057 0.000000
2.243053 2.243053 0.000000
2.499848 2.499848 0.000000
2.756642 2.756642 0.000000
3.064796 3.064796 0.000000
3.372949 3.372949 0.000000
3.742734 3.742734 0.000000
4.112518 4.112518 0.000000
4.556259 4.556259 0.000000
0.758707 0.758707 0.000000
0.861907 0.861907 0.000000
0.975427 0.975427 0.000000
1.099267 1.099267 0.000000
1.235491 1.235491 0.000000
1.384099 1.384099 0.000000
1.547568 1.547568 0.000000
1.725897 1.725897 0.000000
1.922060 1.922060 0.000000
2.136055 2.136055 0.000000
2.371450 2.371450 0.000000
2.628245 2.628245 0.000000
2.910719 2.910719 0.000000
3.218873 3.218873 0.000000
3.557841 3.557841 0.000000
3.927626 3.927626 0.000000
4.334388 4.334388 0.000000
4.778129 4.778129 0.000000
-0.810307 0.810307 0.000000
-0.913507 0.913507 0.000000
-1.037347 1.037347 0.000000
-1.161187 1.161187 0.000000
-1.309795 1.309795 0.000000
-1.458403 1.458403 0.000000
-1.636732 1.636732 0.000000
-1.815062 1.815062 0.000000
-2.029057 2.029057 0.000000
-2.243053 2.243053 0.000000
-2.499848 2.499848 0.000000
-2.756642 2.756642 0.000000
-3.064796 3.064796 0.000000
-3.372949 3.372949 0.000000
-3.742734 3.742734 0.000000
-4.112518 4.112518 0.000000
-4.556259 4.556259 0.000000
-0.758707 0.758707 0.000000
-0.861907 0.861907 0.000000
-0.975427 0.975427 0.000000
-1.099267 1.099267 0.000000
-1.235491 1.235491 0.000000
-1.384099 1.384099 0.000000
-1.547568 1.547568 0.000000
-1.725897 1.725897 0.000000
-1.922060 1.922060 0.000000
-2.136055 2.136055 0.000000
-2.371450 2.371450 0.000000
-2.628245 2.628245 0.000000
-2.910719 2.910719 0.000000
-3.218873 3.218873 0.000000
-3.557841 3.557841 0.000000
-3.927626 3.927626 0.000000
-4.334388 4.334388 0.000000
-4.778129 4.778129 0.000000
-0.810307 -0.810307 0.000000
-0.913507 -0.913507 0.000000
-1.037347 -1.037347 0.000000
-1.161187 -1.161187 0.000000
-1.309795 -1.309795 0.000000
-1.458403 -1.458403 0.000000
-1.636732 -1.636732 0.000000
-1.815062 -1.815062 0.000000
-2.029057 -2.029057 0.000000
-2.243053 -2.243053 0.000000
-2.499848 -2.499848 0.000000
-2.756642 -2.756642 0.000000
-3.064796 -3.064796 0.000000
-3.372949 -3.372949 0.000000
-3.742734 -3.742734 0.000000
-4.112518 -4.112518 0.000000
-4.556259 -4.556259 0.000000
-0.758707 -0.758707 0.000000
-0.861907 -0.861907 0.000000
-0.975427 -0.975427 0.000000
-1.099267 -1.099267 0.000000
-1.235491 -1.235491 0.000000
-1.384099 -1.384099 0.000000
-1.547568 -1.547568 0.000000
-1.725897 -1.725897 0.000000
-1.922060 -1.922060 0.000000
-2.136055 -2.136055 0.000000
-2.371450 -2.371450 0.000000
-2.628245 -2.628245 0.000000
-2.910719 -2.910719 0.000000
-3.218873 -3.218873 0.000000
-3.557841 -3.557841 0.000000
-3.927626 -3.927626 0.000000
-4.334388 -4.334388 0.000000
-4.778129 -4.778129 0.000000
1.094227 -0.475145 0.000000
1.192318 -0.000000 0.000000
1.094263 0.475133 0.000000
1.331102 -0.598521 0.000000
1.423099 -0.000000 0.000000
1.329458 0.597968 0.000000
1.619869 -0.748427 0.000000
1.700037 -0.000000 0.000000
1.619282 0.748135 0.000000
1.964846 -0.927708 0.000000
2.019948 0.000000 0.000000
1.965087 0.927603 0.000000
2.380706 -1.143085 0.000000
2.426191 -0.000037 0.000000
2.380838 1.143189 0.000000
2.880864 -1.401582 0.000000
2.918082 -0.000038 0.000000
2.880972 1.401837 0.000000
3.483018 -1.712694 0.000000
3.510562 -0.000293 0.000000
3.482223 1.712253 0.000000
4.195106 -2.081396 0.000000
4.211000 0.000152 0.000000
4.197691 2.082596 0.000000
1.013221 -0.700621 0.000000
0.998025 -0.424069 0.000000
0.912936 -0.621915 0.000000
1.152151 -0.240193 0.000000
1.079607 -0.000027 0.000000
1.058688 -0.215811 0.000000
1.151822 0.240076 0.000000
0.996939 0.423718 0.000000
1.058073 0.215645 0.000000
1.012938 0.700511 0.000000
0.913073 0.621965 0.000000
1.256844 -0.887013 0.000000
1.205930 -0.533536 0.000000
1.129682 -0.789552 0.000000
1.388120 -0.302079 0.000000
1.307709 -0.000000 0.000000
1.265093 -0.269670 0.000000
1.387245 0.301768 0.000000
1.205885 0.533442 0.000000
1.262972 0.268945 0.000000
1.255966 0.886700 0.000000
1.128391 0.789086 0.000000
1.550668 -1.111381 0.000000
1.470982 -0.670625 0.000000
1.397630 -0.994218 0.000000
1.669602 -0.376788 0.000000
1.561568 -0.000000 0.000000
1.524265 -0.338114 0.000000
1.667792 0.376229 0.000000
1.467535 0.669595 0.000000
1.521776 0.337283 0.000000
1.549580 1.111046 0.000000
1.395897 0.993737 0.000000
1.901923 -1.380305 0.000000
1.783738 -0.833918 0.000000
1.717472 -1.239582 0.000000
2.004147 -0.466174 0.000000
1.844312 -0.000125 0.000000
1.829856 -0.419536 0.000000
2.005734 0.466127 0.000000
1.784029 0.833764 0.000000
1.827979 0.419111 0.000000
1.901674 1.380174 0.000000
1.718268 1.239492 0.000000
2.325193 -1.703384 0.000000
2.162611 -1.030573 0.000000
2.103969 -1.534115 0.000000
2.414410 -0.574036 0.000000
2.213673 0.000094 0.000000
2.199947 -0.517507 0.000000
2.414681 0.573921 0.000000
2.162850 1.030574 0.000000
2.199801 0.517647 0.000000
2.325181 1.703320 0.000000
2.103976 1.534073 0.000000
2.833668 -2.091242 0.000000
2.619755 -1.266778 0.000000
2.567641 -1.888302 0.000000
2.909645 -0.703189 0.000000
2.661233 -0.000137 0.000000
2.650510 -0.635559 0.000000
2.910775 0.703628 0.000000
2.620156 1.267295 0.000000
[...]
POINT_DATA 1792
VECTORS sol double
+8.485281 +8.485281 0
-8.485281 +8.485281 0
-8.485281 -8.485281 0
+8.485281 -8.485281 0
-0.169706 -0.169706 0
+0.169706 -0.169706 0
+0.169706 +0.169706 0
-0.169706 +0.169706 0
+6.666843 +9.977635 0
+4.592201 +11.086554 0
+2.341084 +11.769423 0
+0.000000 +12.000000 0
-2.341084 +11.769423 0
-4.592201 +11.086554 0
-6.666843 +9.977635 0
+7.612719 +9.276125 0
+5.656761 +10.583055 0
+3.483416 +11.483284 0
+1.176206 +11.942217 0
-1.176206 +11.942217 0
-3.483416 +11.483284 0
-5.656761 +10.583055 0
-7.612719 +9.276125 0
-9.977635 +6.666843 0
-11.086554 +4.592201 0
-11.769423 +2.341084 0
-12.000000 +0.000000 0
-11.769423 -2.341084 0
-11.086554 -4.592201 0
-9.977635 -6.666843 0
-9.276125 +7.612719 0
-10.583055 +5.656761 0
-11.483284 +3.483416 0
-11.942217 +1.176206 0
-11.942217 -1.176206 0
-11.483284 -3.483416 0
-10.583055 -5.656761 0
-9.276125 -7.612719 0
-6.666843 -9.977635 0
-4.592201 -11.086554 0
-2.341084 -11.769423 0
-0.000000 -12.000000 0
+2.341084 -11.769423 0
+4.592201 -11.086554 0
+6.666843 -9.977635 0
-7.612719 -9.276125 0
-5.656761 -10.583055 0
-3.483416 -11.483284 0
-1.176206 -11.942217 0
+1.176206 -11.942217 0
+3.483416 -11.483284 0
+5.656761 -10.583055 0
+7.612719 -9.276125 0
+9.977635 -6.666843 0
+11.086554 -4.592201 0
+11.769423 -2.341084 0
+12.000000 -0.000000 0
+11.769423 +2.341084 0
+11.086554 +4.592201 0
+9.977635 +6.666843 0
+9.276125 -7.612719 0
+10.583055 -5.656761 0
+11.483284 -3.483416 0
+11.942217 -1.176206 0
+11.942217 +1.176206 0
+11.483284 +3.483416 0
+10.583055 +5.656761 0
+9.276125 +7.612719 0
+0.245760 -0.184320 0
+0.343460 -0.171730 0
+0.438276 -0.109569 0
+0.480000 -0.000000 0
+0.438276 +0.109569 0
+0.343460 +0.171730 0
+0.245760 +0.184320 0
+0.204594 -0.179020 0
+0.292702 -0.182939 0
+0.394028 -0.147760 0
+0.468966 -0.058621 0
+0.468966 +0.058621 0
+0.394028 +0.147760 0
+0.292702 +0.182939 0
+0.204594 +0.179020 0
+0.184320 +0.245760 0
+0.171730 +0.343460 0
+0.109569 +0.438276 0
+0.000000 +0.480000 0
-0.109569 +0.438276 0
-0.171730 +0.343460 0
-0.184320 +0.245760 0
+0.179020 +0.204594 0
+0.182939 +0.292702 0
+0.147760 +0.394028 0
+0.058621 +0.468966 0
-0.058621 +0.468966 0
-0.147760 +0.394028 0
-0.182939 +0.292702 0
-0.179020 +0.204594 0
-0.245760 +0.184320 0
-0.343460 +0.171730 0
-0.438276 +0.109569 0
-0.480000 +0.000000 0
-0.438276 -0.109569 0
-0.343460 -0.171730 0
-0.245760 -0.184320 0
-0.204594 +0.179020 0
-0.292702 +0.182939 0
-0.394028 +0.147760 0
-0.468966 +0.058621 0
-0.468966 -0.058621 0
-0.394028 -0.147760 0
-0.292702 -0.182939 0
-0.204594 -0.179020 0
-0.184320 -0.245760 0
-0.171730 -0.343460 0
-0.109569 -0.438276 0
-0.000000 -0.480000 0
+0.109569 -0.438276 0
+0.171730 -0.343460 0
+0.184320 -0.245760 0
-0.179020 -0.204594 0
-0.182939 -0.292702 0
-0.147760 -0.394028 0
-0.058621 -0.468966 0
+0.058621 -0.468966 0
+0.147760 -0.394028 0
+0.182939 -0.292702 0
+0.179020 -0.204594 0
+0.000000 +0.000000 0
+0.000000 +0.000000 0
+0.000000 +0.000000 0
+0.000000 +0.000000 0
+0.000000 +0.000000 0
+0.000000 +0.000000 0
+0.000000 +0.000000 0
+0.000000 +0.000000 0
+0.000000 +0.000000 0
+0.000000 +0.000000 0
+0.000000 +0.000000 0
+0.000000 +0.000000 0
+0.000000 +0.000000 0
+0.000000 +0.000000 0
+0.000000 +0.000000 0
+0.000000 +0.000000 0
+0.000000 +0.000000 0
+0.000000 +0.000000 0
+0.000000 +0.000000 0
+0.000000 +0.000000 0
+0.000000 +0.000000 0
+0.000000 +0.000000 0
+0.000000 +0.000000 0
+0.000000 +0.000000 0
+0.000000 +0.000000 0
+0.000000 +0.000000 0
+0.000000 +0.000000 0
+0.000000 +0.000000 0
+0.000000 +0.000000 0
+0.000000 +0.000000 0
+0.000000 +0.000000 0
+0.000000 +0.000000 0
+0.000000 +0.000000 0
+0.000000 +0.000000 0
+0.000000 +0.000000 0
+0.000000 +0.000000 0
+0.000000 +0.000000 0
+0.000000 +0.000000 0
+0.000000 +0.000000 0
+0.000000 +0.000000 0
+0.000000 +0.000000 0
+0.000000 +0.000000 0
+0.000000 +0.000000 0
+0.000000 +0.000000 0
+0.000000 +0.000000 0
+0.000000 +0.000000 0
+0.000000 +0.000000 0
+0.000000 +0.000000 0
+0.000000 +0.000000 0
+0.000000 +0.000000 0
+0.000000 +0.000000 0
+0.000000 +0.000000 0
+0.000000 +0.000000 0
+0.000000 +0.000000 0
+0.000000 +0.000000 0
+0.000000 +0.000000 0
+0.000000 +0.000000 0
+0.000000 +0.000000 0
+0.000000 +0.000000 0
+0.000000 +0.000000 0
+0.000000 +0.000000 0
+0.000000 +0.000000 0
+0.000000 +0.000000 0
+0.000000 +0.000000 0
+0.000000 +0.000000 0
+0.000000 +0.000000 0
+0.000000 +0.000000 0
+0.000000 +0.000000 0
+0.000000 +0.000000 0
+0.000000 +0.000000 0
+0.000000 +0.000000 0
+0.000000 +0.000000 0
+0.000000 +0.000000 0
+0.000000 +0.000000 0
+0.000000 +0.000000 0
+0.000000 +0.000000 0
+0.000000 +0.000000 0
+0.000000 +0.000000 0
+0.000000 +0.000000 0
+0.000000 +0.000000 0
+0.000000 +0.000000 0
+0.000000 +0.000000 0
+0.000000 +0.000000 0
+0.000000 +0.000000 0
+0.000000 +0.000000 0
+0.000000 +0.000000 0
+0.000000 +0.000000 0
+0.000000 +0.000000 0
+0.000000 +0.000000 0
+0.000000 +0.000000 0
+0.000000 +0.000000 0
+0.000000 +0.000000 0
+0.000000 +0.000000 0
+0.000000 +0.000000 0
+0.000000 +0.000000 0
+0.000000 +0.000000 0
+0.000000 +0.000000 0
+0.000000 +0.000000 0
+0.000000 +0.000000 0
+0.000000 +0.000000 0
+0.000000 +0.000000 0
+0.000000 +0.000000 0
+0.000000 +0.000000 0
+0.000000 +0.000000 0
+0.000000 +0.000000 0
+0.000000 +0.000000 0
+0.000000 +0.000000 0
+0.000000 +0.000000 0
+0.000000 +0.000000 0
+0.000000 +0.000000 0
+0.000000 +0.000000 0
+0.000000 +0.000000 0
+0.000000 +0.000000 0
+0.000000 +0.000000 0
+0.000000 +0.000000 0
+0.000000 +0.000000 0
+0.000000 +0.000000 0
+0.000000 +0.000000 0
+0.000000 +0.000000 0
+0.000000 +0.000000 0
+0.000000 +0.000000 0
+0.000000 +0.000000 0
+0.000000 +0.000000 0
+0.000000 +0.000000 0
+0.000000 +0.000000 0
+0.000000 +0.000000 0
+0.000000 +0.000000 0
+0.000000 +0.000000 0
+0.000000 +0.000000 0
+0.000000 +0.000000 0
+0.000000 +0.000000 0
+0.000000 +0.000000 0
+0.000000 +0.000000 0
+0.000000 +0.000000 0
+0.000000 +0.000000 0
+0.000000 +0.000000 0
+0.000000 +0.000000 0
+0.000000 +0.000000 0
+0.000000 +0.000000 0
+0.000000 +0.000000 0
+0.000000 +0.000000 0
+0.000000 +0.000000 0
+0.000000 +0.000000 0
+0.000000 +0.000000 0
+0.000000 +0.000000 0
+0.000000 +0.000000 0
+0.000000 +0.000000 0
+0.000000 +0.000000 0
+0.000000 +0.000000 0
+0.000000 +0.000000 0
+0.000000 +0.000000 0
+0.000000 +0.000000 0
+0.000000 +0.000000 0
+0.000000 +0.000000 0
+0.000000 +0.000000 0
+0.000000 +0.000000 0
+0.000000 +0.000000 0
+0.000000 +0.000000 0
+0.000000 +0.000000 0
+0.000000 +0.000000 0
+0.000000 +0.000000 0
+0.000000 +0.000000 0
+0.000000 +0.000000 0
+0.000000 +0.000000 0
+0.000000 +0.000000 0
+0.000000 +0.000000 0
+0.000000 +0.000000 0
+0.000000 +0.000000 0
+0.000000 +0.000000 0
+0.000000 +0.000000 0
+0.000000 +0.000000 0
+0.000000 +0.000000 0
+0.000000 +0.000000 0
+0.000000 +0.000000 0
+0.000000 +0.000000 0
+0.000000 +0.000000 0
+0.000000 +0.000000 0
+0.000000 +0.000000 0
+0.000000 +0.000000 0
+0.000000 +0.000000 0
+0.000000 +0.000000 0
+0.000000 +0.000000 0
+0.000000 +0.000000 0
+0.000000 +0.000000 0
+0.000000 +0.000000 0
+0.000000 +0.000000 0
+0.000000 +0.000000 0
+0.000000 +0.000000 0
+0.000000 +0.000000 0
+0.000000 +0.000000 0
+0.000000 +0.000000 0
+0.000000 +0.000000 0
+0.000000 +0.000000 0
+0.000000 +0.000000 0
+0.000000 +0.000000 0
+0.000000 +0.000000 0
+0.000000 +0.000000 0
+0.000000 +0.000000 0
+0.000000 +0.000000 0
+0.000000 +0.000000 0
+0.000000 +0.000000 0
+0.000000 +0.000000 0
+0.000000 +0.000000 0
+0.000000 +0.000000 0
+0.000000 +0.000000 0
+0.000000 +0.000000 0
+0.000000 +0.000000 0
+0.000000 +0.000000 0
+0.000000 +0.000000 0
+0.000000 +0.000000 0
+0.000000 +0.000000 0
+0.000000 +0.000000 0
+0.000000 +0.000000 0
+0.000000 +0.000000 0
+0.000000 +0.000000 0
+0.000000 +0.000000 0
+0.000000 +0.000000 0
+0.000000 +0.000000 0
+0.000000 +0.000000 0
+0.000000 +0.000000 0
+0.000000 +0.000000 0
+0.000000 +0.000000 0
+0.000000 +0.000000 0
+0.000000 +0.000000 0
+0.000000 +0.000000 0
+0.000000 +0.000000 0
+0.000000 +0.000000 0
+0.000000 +0.000000 0
+0.000000 +0.000000 0
+0.000000 +0.000000 0
+0.000000 +0.000000 0
+0.000000 +0.000000 0
+0.000000 +0.000000 0
+0.000000 +0.000000 0
+0.000000 +0.000000 0
+0.000000 +0.000000 0
+0.000000 +0.000000 0
+0.000000 +0.000000 0
+0.000000 +0.000000 0
+0.000000 +0.000000 0
+0.000000 +0.000000 0
+0.000000 +0.000000 0
+0.000000 +0.000000 0
+0.000000 +0.000000 0
+0.000000 +0.000000 0
+0.000000 +0.000000 0
+0.000000 +0.000000 0
+0.000000 +0.000000 0
+0.000000 +0.000000 0
+0.000000 +0.000000 0
+0.000000 +0.000000 0
+0.000000 +0.000000 0
+0.000000 +0.000000 0
+0.000000 +0.000000 0
+0.000000 +0.000000 0
+0.000000 +0.000000 0
+0.000000 +0.000000 0
+0.000000 +0.000000 0
+0.000000 +0.000000 0
+0.000000 +0.000000 0
+0.000000 +0.000000 0
+0.000000 +0.000000 0
+0.000000 +0.000000 0
+0.000000 +0.000000 0
+0.000000 +0.000000 0
+0.000000 +0.000000 0
+0.000000 +0.000000 0
+0.000000 +0.000000 0
+0.000000 +0.000000 0
+0.000000 +0.000000 0
+0.000000 +0.000000 0
+0.000000 +0.000000 0
+0.000000 +0.000000 0
+0.000000 +0.000000 0
+0.000000 +0.000000 0
+0.000000 +0.000000 0
+0.000000 +0.000000 0
+0.000000 +0.000000 0
+0.000000 +0.000000 0
+0.000000 +0.000000 0
+0.000000 +0.000000 0
+0.000000 +0.000000 0
+0.000000 +0.000000 0
+0.000000 +0.000000 0
+0.000000 +0.000000 0
+0.000000 +0.000000 0
+0.000000 +0.000000 0
+0.000000 +0.000000 0
+0.000000 +0.000000 0
+0.000000 +0.000000 0
+0.000000 +0.000000 0
+0.000000 +0.000000 0
+0.000000 +0.000000 0
+0.000000 +0.000000 0
+0.000000 +0.000000 0
+0.000000 +0.000000 0
+0.000000 +0.000000 0
+0.000000 +0.000000 0
+0.000000 +0.000000 0
+0.000000 +0.000000 0
+0.000000 +0.000000 0
+0.000000 +0.000000 0
+0.000000 +0.000000 0
+0.000000 +0.000000 0
+0.000000 +0.000000 0
+0.000000 +0.000000 0
+0.000000 +0.000000 0
+0.000000 +0.000000 0
+0.000000 +0.000000 0
+0.000000 +0.000000 0
+0.000000 +0.000000 0
+0.000000 +0.000000 0
+0.000000 +0.000000 0
+0.000000 +0.000000 0
+0.000000 +0.000000 0
+0.000000 +0.000000 0
+0.000000 +0.000000 0
+0.000000 +0.000000 0
+0.000000 +0.000000 0
+0.000000 +0.000000 0
+0.000000 +0.000000 0
+0.000000 +0.000000 0
+0.000000 +0.000000 0
+0.000000 +0.000000 0
+0.000000 +0.000000 0
+0.000000 +0.000000 0
+0.000000 +0.000000 0
+0.000000 +0.000000 0
+0.000000 +0.000000 0
+0.000000 +0.000000 0
+0.000000 +0.000000 0
+0.000000 +0.000000 0
+0.000000 +0.000000 0
+0.000000 +0.000000 0
+0.000000 +0.000000 0
+0.000000 +0.000000 0
+0.000000 +0.000000 0
+0.000000 +0.000000 0
+0.000000 +0.000000 0
+0.000000 +0.000000 0
+0.000000 +0.000000 0
+0.000000 +0.000000 0
+0.000000 +0.000000 0
+0.000000 +0.000000 0
+0.000000 +0.000000 0
+0.000000 +0.000000 0
+0.000000 +0.000000 0
+0.000000 +0.000000 0
+0.000000 +0.000000 0
+0.000000 +0.000000 0
+0.000000 +0.000000 0
+0.000000 +0.000000 0
+0.000000 +0.000000 0
+0.000000 +0.000000 0
+0.000000 +0.000000 0
+0.000000 +0.000000 0
+0.000000 +0.000000 0
+0.000000 +0.000000 0
+0.000000 +0.000000 0
+0.000000 +0.000000 0
+0.000000 +0.000000 0
+0.000000 +0.000000 0
+0.000000 +0.000000 0
+0.000000 +0.000000 0
+0.000000 +0.000000 0
+0.000000 +0.000000 0
+0.000000 +0.000000 0
+0.000000 +0.000000 0
+0.000000 +0.000000 0
+0.000000 +0.000000 0
+0.000000 +0.000000 0
+0.000000 +0.000000 0
+0.000000 +0.000000 0
+0.000000 +0.000000 0
+0.000000 +0.000000 0
+0.000000 +0.000000 0
+0.000000 +0.000000 0
+0.000000 +0.000000 0
+0.000000 +0.000000 0
+0.000000 +0.000000 0
+0.000000 +0.000000 0
+0.000000 +0.000000 0
+0.000000 +0.000000 0
+0.000000 +0.000000 0
+0.000000 +0.000000 0
+0.000000 +0.000000 0
+0.000000 +0.000000 0
+0.000000 +0.000000 0
+0.000000 +0.000000 0
+0.000000 +0.000000 0
+0.000000 +0.000000 0
+0.000000 +0.000000 0
+0.000000 +0.000000 0
+0.000000 +0.000000 0
+0.000000 +0.000000 0
+0.000000 +0.000000 0
+0.000000 +0.000000 0
+0.000000 +0.000000 0
+0.000000 +0.000000 0
+0.000000 +0.000000 0
+0.000000 +0.000000 0
+0.000000 +0.000000 0
+0.000000 +0.000000 0
+0.000000 +0.000000 0
+0.000000 +0.000000 0
+0.000000 +0.000000 0
+0.000000 +0.000000 0
+0.000000 +0.000000 0
+0.000000 +0.000000 0
+0.000000 +0.000000 0
+0.000000 +0.000000 0
+0.000000 +0.000000 0
+0.000000 +0.000000 0
+0.000000 +0.000000 0
+0.000000 +0.000000 0
+0.000000 +0.000000 0
+0.000000 +0.000000 0
+0.000000 +0.000000 0
+0.000000 +0.000000 0
+0.000000 +0.000000 0
+0.000000 +0.000000 0
+0.000000 +0.000000 0
+0.000000 +0.000000 0
+0.000000 +0.000000 0
+0.000000 +0.000000 0
+0.000000 +0.000000 0
+0.000000 +0.000000 0
+0.000000 +0.000000 0
+0.000000 +0.000000 0
+0.000000 +0.000000 0
+0.000000 +0.000000 0
+0.000000 +0.000000 0
+0.000000 +0.000000 0
+0.000000 +0.000000 0
+0.000000 +0.000000 0
+0.000000 +0.000000 0
+0.000000 +0.000000 0
+0.000000 +0.000000 0
+0.000000 +0.000000 0
+0.000000 +0.000000 0
+0.000000 +0.000000 0
+0.000000 +0.000000 0
+0.000000 +0.000000 0
+0.000000 +0.000000 0
+0.000000 +0.000000 0
+0.000000 +0.000000 0
+0.000000 +0.000000 0
+0.000000 +0.000000 0
+0.000000 +0.000000 0
+0.000000 +0.000000 0
+0.000000 +0.000000 0
+0.000000 +0.000000 0
+0.000000 +0.000000 0
+0.000000 +0.000000 0
+0.000000 +0.000000 0
+0.000000 +0.000000 0
+0.000000 +0.000000 0
+0.000000 +0.000000 0
+0.000000 +0.000000 0
+0.000000 +0.000000 0
+0.000000 +0.000000 0
+0.000000 +0.000000 0
+0.000000 +0.000000 0
+0.000000 +0.000000 0
+0.000000 +0.000000 0
+0.000000 +0.000000 0
+0.000000 +0.000000 0
+0.000000 +0.000000 0
+0.000000 +0.000000 0
+0.000000 +0.000000 0
+0.000000 +0.000000 0
+0.000000 +0.000000 0
+0.000000 +0.000000 0
+0.000000 +0.000000 0
+0.000000 +0.000000 0
+0.000000 +0.000000 0
+0.000000 +0.000000 0
+0.000000 +0.000000 0
+0.000000 +0.000000 0
+0.000000 +0.000000 0
+0.000000 +0.000000 0
+0.000000 +0.000000 0
+0.000000 +0.000000 0
+0.000000 +0.000000 0
+0.000000 +0.000000 0
+0.000000 +0.000000 0
+0.000000 +0.000000 0
+0.000000 +0.000000 0
+0.000000 +0.000000 0
+0.000000 +0.000000 0
+0.000000 +0.000000 0
+0.000000 +0.000000 0
+0.000000 +0.000000 0
+0.000000 +0.000000 0
+0.000000 +0.000000 0
+0.000000 +0.000000 0
+0.000000 +0.000000 0
+0.000000 +0.000000 0
+0.000000 +0.000000 0
+0.000000 +0.000000 0
+0.000000 +0.000000 0
+0.000000 +0.000000 0
+0.000000 +0.000000 0
+0.000000 +0.000000 0
+0.000000 +0.000000 0
+0.000000 +0.000000 0
+0.000000 +0.000000 0
+0.000000 +0.000000 0
+0.000000 +0.000000 0
+0.000000 +0.000000 0
+0.000000 +0.000000 0
+0.000000 +0.000000 0
+0.000000 +0.000000 0
+0.000000 +0.000000 0
+0.000000 +0.000000 0
+0.000000 +0.000000 0
+0.000000 +0.000000 0
+0.000000 +0.000000 0
+0.000000 +0.000000 0
+0.000000 +0.000000 0
+0.000000 +0.000000 0
+0.000000 +0.000000 0
+0.000000 +0.000000 0
+0.000000 +0.000000 0
+0.000000 +0.000000 0
+0.000000 +0.000000 0
+0.000000 +0.000000 0
+0.000000 +0.000000 0
+0.000000 +0.000000 0
+0.000000 +0.000000 0
+0.000000 +0.000000 0
+0.000000 +0.000000 0
+0.000000 +0.000000 0
+0.000000 +0.000000 0
+0.000000 +0.000000 0
+0.000000 +0.000000 0
+0.000000 +0.000000 0
+0.000000 +0.000000 0
+0.000000 +0.000000 0
+0.000000 +0.000000 0
+0.000000 +0.000000 0
+0.000000 +0.000000 0
+0.000000 +0.000000 0
+0.000000 +0.000000 0
+0.000000 +0.000000 0
+0.000000 +0.000000 0
+0.000000 +0.000000 0
+0.000000 +0.000000 0
+0.000000 +0.000000 0
+0.000000 +0.000000 0
+0.000000 +0.000000 0
+0.000000 +0.000000 0
+0.000000 +0.000000 0
+0.000000 +0.000000 0
+0.000000 +0.000000 0
+0.000000 +0.000000 0
+0.000000 +0.000000 0
+0.000000 +0.000000 0
+0.000000 +0.000000 0
+0.000000 +0.000000 0
+0.000000 +0.000000 0
+0.000000 +0.000000 0
+0.000000 +0.000000 0
+0.000000 +0.000000 0
+0.000000 +0.000000 0
+0.000000 +0.000000 0
+0.000000 +0.000000 0
+0.000000 +0.000000 0
+0.000000 +0.000000 0
+0.000000 +0.000000 0
+0.000000 +0.000000 0
+0.000000 +0.000000 0
+0.000000 +0.000000 0
+0.000000 +0.000000 0
+0.000000 +0.000000 0
+0.000000 +0.000000 0
+0.000000 +0.000000 0
+0.000000 +0.000000 0
+0.000000 +0.000000 0
+0.000000 +0.000000 0
+0.000000 +0.000000 0
+0.000000 +0.000000 0
+0.000000 +0.000000 0
+0.000000 +0.000000 0
+0.000000 +0.000000 0
+0.000000 +0.000000 0
+0.000000 +0.000000 0
+0.000000 +0.000000 0
+0.000000 +0.000000 0
+0.000000 +0.000000 0
+0.000000 +0.000000 0
+0.000000 +0.000000 0
+0.000000 +0.000000 0
+0.000000 +0.000000 0
+0.000000 +0.000000 0
+0.000000 +0.000000 0
+0.000000 +0.000000 0
+0.000000 +0.000000 0
+0.000000 +0.000000 0
+0.000000 +0.000000 0
+0.000000 +0.000000 0
+0.000000 +0.000000 0
+0.000000 +0.000000 0
+0.000000 +0.000000 0
+0.000000 +0.000000 0
+0.000000 +0.000000 0
+0.000000 +0.000000 0
+0.000000 +0.000000 0
+0.000000 +0.000000 0
+0.000000 +0.000000 0
+0.000000 +0.000000 0
+0.000000 +0.000000 0
+0.000000 +0.000000 0
+0.000000 +0.000000 0
+0.000000 +0.000000 0
+0.000000 +0.000000 0
+0.000000 +0.000000 0
+0.000000 +0.000000 0
+0.000000 +0.000000 0
+0.000000 +0.000000 0
+0.000000 +0.000000 0
+0.000000 +0.000000 0
+0.000000 +0.000000 0
+0.000000 +0.000000 0
+0.000000 +0.000000 0
+0.000000 +0.000000 0
+0.000000 +0.000000 0
+0.000000 +0.000000 0
+0.000000 +0.000000 0
+0.000000 +0.000000 0
+0.000000 +0.000000 0
+0.000000 +0.000000 0
+0.000000 +0.000000 0
+0.000000 +0.000000 0
+0.000000 +0.000000 0
+0.000000 +0.000000 0
+0.000000 +0.000000 0
+0.000000 +0.000000 0
+0.000000 +0.000000 0
+0.000000 +0.000000 0
+0.000000 +0.000000 0
+0.000000 +0.000000 0
+0.000000 +0.000000 0
+0.000000 +0.000000 0
+0.000000 +0.000000 0
+0.000000 +0.000000 0
+0.000000 +0.000000 0
+0.000000 +0.000000 0
+0.000000 +0.000000 0
+0.000000 +0.000000 0
+0.000000 +0.000000 0
+0.000000 +0.000000 0
+0.000000 +0.000000 0
+0.000000 +0.000000 0
+0.000000 +0.000000 0
+0.000000 +0.000000 0
+0.000000 +0.000000 0
+0.000000 +0.000000 0
+0.000000 +0.000000 0
+0.000000 +0.000000 0
+0.000000 +0.000000 0
+0.000000 +0.000000 0
+0.000000 +0.000000 0
+0.000000 +0.000000 0
+0.000000 +0.000000 0
+0.000000 +0.000000 0
+0.000000 +0.000000 0
+0.000000 +0.000000 0
+0.000000 +0.000000 0
+0.000000 +0.000000 0
+0.000000 +0.000000 0
+0.000000 +0.000000 0
+0.000000 +0.000000 0
+0.000000 +0.000000 0
+0.000000 +0.000000 0
+0.000000 +0.000000 0
+0.000000 +0.000000 0
+0.000000 +0.000000 0
+0.000000 +0.000000 0
+0.000000 +0.000000 0
+0.000000 +0.000000 0
+0.000000 +0.000000 0
+0.000000 +0.000000 0
+0.000000 +0.000000 0
+0.000000 +0.000000 0
+0.000000 +0.000000 0
+0.000000 +0.000000 0
+0.000000 +0.000000 0
+0.000000 +0.000000 0
+0.000000 +0.000000 0
+0.000000 +0.000000 0
+0.000000 +0.000000 0
+0.000000 +0.000000 0
+0.000000 +0.000000 0
+0.000000 +0.000000 0
+0.000000 +0.000000 0
+0.000000 +0.000000 0
+0.000000 +0.000000 0
+0.000000 +0.000000 0
+0.000000 +0.000000 0
+0.000000 +0.000000 0
+0.000000 +0.000000 0
+0.000000 +0.000000 0
+0.000000 +0.000000 0
+0.000000 +0.000000 0
+0.000000 +0.000000 0
+0.000000 +0.000000 0
+0.000000 +0.000000 0
+0.000000 +0.000000 0
+0.000000 +0.000000 0
+0.000000 +0.000000 0
+0.000000 +0.000000 0
+0.000000 +0.000000 0
+0.000000 +0.000000 0
+0.000000 +0.000000 0
+0.000000 +0.000000 0
+0.000000 +0.000000 0
+0.000000 +0.000000 0
+0.000000 +0.000000 0
+0.000000 +0.000000 0
+0.000000 +0.000000 0
+0.000000 +0.000000 0
+0.000000 +0.000000 0
+0.000000 +0.000000 0
+0.000000 +0.000000 0
+0.000000 +0.000000 0
+0.000000 +0.000000 0
+0.000000 +0.000000 0
+0.000000 +0.000000 0
+0.000000 +0.000000 0
+0.000000 +0.000000 0
+0.000000 +0.000000 0
+0.000000 +0.000000 0
+0.000000 +0.000000 0
+0.000000 +0.000000 0
+0.000000 +0.000000 0
+0.000000 +0.000000 0
+0.000000 +0.000000 0
+0.000000 +0.000000 0
+0.000000 +0.000000 0
+0.000000 +0.000000 0
+0.000000 +0.000000 0
+0.000000 +0.000000 0
+0.000000 +0.000000 0
+0.000000 +0.000000 0
+0.000000 +0.000000 0
+0.000000 +0.000000 0
+0.000000 +0.000000 0
+0.000000 +0.000000 0
+0.000000 +0.000000 0
+0.000000 +0.000000 0
+0.000000 +0.000000 0
+0.000000 +0.000000 0
+0.000000 +0.000000 0
+0.000000 +0.000000 0
+0.000000 +0.000000 0
+0.000000 +0.000000 0
+0.000000 +0.000000 0
+0.000000 +0.000000 0
+0.000000 +0.000000 0
+0.000000 +0.000000 0
+0.000000 +0.000000 0
+0.000000 +0.000000 0
+0.000000 +0.000000 0
+0.000000 +0.000000 0
+0.000000 +0.000000 0
+0.000000 +0.000000 0
+0.000000 +0.000000 0
+0.000000 +0.000000 0
+0.000000 +0.000000 0
+0.000000 +0.000000 0
+0.000000 +0.000000 0
+0.000000 +0.000000 0
+0.000000 +0.000000 0
+0.000000 +0.000000 0
+0.000000 +0.000000 0
+0.000000 +0.000000 0