# vtk DataFile Version 2.0
MyTitle
ASCII
DATASET UNSTRUCTURED_GRID
POINTS 1792 double
0.707107 0.707107 0.000000
-0.707107 0.707107 0.000000
-0.707107 -0.707107 0.000000
0.707107 -0.707107 0.000000
-5.000000 -5.000000 0.000000
5.000000 -5.000000 0.000000
5.000000 5.000000 0.000000
-5.000000 5.000000 0.000000
0.555570 0.831470 0.000000
0.382683 0.923880 0.000000
0.195090 0.980785 0.000000
0.000000 1.000000 0.000000
-0.195090 0.980785 0.000000
-0.382683 0.923880 0.000000
-0.555570 0.831470 0.000000
0.634393 0.773010 0.000000
0.471397 0.881921 0.000000
0.290285 0.956940 0.000000
0.098017 0.995185 0.000000
-0.098017 0.995185 0.000000
-0.290285 0.956940 0.000000
-0.471397 0.881921 0.000000
-0.634393 0.773010 0.000000
-0.831470 0.555570 0.000000
-0.923880 0.382683 0.000000
-0.980785 0.195090 0.000000
-1.000000 0.000000 0.000000
-0.980785 -0.195090 0.000000
-0.923880 -0.382683 0.000000
-0.831470 -0.555570 0.000000
-0.773010 0.634393 0.000000
-0.881921 0.471397 0.000000
-0.956940 0.290285 0.000000
-0.995185 0.098017 0.000000
-0.995185 -0.098017 0.000000
-0.956940 -0.290285 0.000000
-0.881921 -0.471397 0.000000
-0.773010 -0.634393 0.000000
-0.555570 -0.831470 0.000000
-0.382683 -0.923880 0.000000
-0.195090 -0.980785 0.000000
-0.000000 -1.000000 0.000000
0.195090 -0.980785 0.000000
0.382683 -0.923880 0.000000
0.555570 -0.831470 0.000000
-0.634393 -0.773010 0.000000
-0.471397 -0.881921 0.000000
-0.290285 -0.956940 0.000000
-0.098017 -0.995185 0.000000
0.098017 -0.995185 0.000000
0.290285 -0.956940 0.000000
0.471397 -0.881921 0.000000
0.634393 -0.773010 0.000000
0.831470 -0.555570 0.000000
0.923880 -0.382683 0.000000
0.980785 -0.195090 0.000000
1.000000 -0.000000 0.000000
0.980785 0.195090 0.000000
0.923880 0.382683 0.000000
0.831470 0.555570 0.000000
0.773010 -0.634393 0.000000
0.881921 -0.471397 0.000000
0.956940 -0.290285 0.000000
0.995185 -0.098017 0.000000
0.995185 0.098017 0.000000
0.956940 0.290285 0.000000
0.881921 0.471397 0.000000
0.773010 0.634393 0.000000
5.000000 -3.750000 0.000000
5.000000 -2.500000 0.000000
5.000000 -1.250000 0.000000
5.000000 -0.000000 0.000000
5.000000 1.250000 0.000000
5.000000 2.500000 0.000000
5.000000 3.750000 0.000000
5.000000 -4.375000 0.000000
5.000000 -3.125000 0.000000
5.000000 -1.875000 0.000000
5.000000 -0.625000 0.000000
5.000000 0.625000 0.000000
5.000000 1.875000 0.000000
5.000000 3.125000 0.000000
5.000000 4.375000 0.000000
3.750000 5.000000 0.000000
2.500000 5.000000 0.000000
1.250000 5.000000 0.000000
0.000000 5.000000 0.000000
-1.250000 5.000000 0.000000
-2.500000 5.000000 0.000000
-3.750000 5.000000 0.000000
4.375000 5.000000 0.000000
3.125000 5.000000 0.000000
1.875000 5.000000 0.000000
0.625000 5.000000 0.000000
-0.625000 5.000000 0.000000
-1.875000 5.000000 0.000000
-3.125000 5.000000 0.000000
-4.375000 5.000000 0.000000
-5.000000 3.750000 0.000000
-5.000000 2.500000 0.000000
-5.000000 1.250000 0.000000
-5.000000 0.000000 0.000000
-5.000000 -1.250000 0.000000
-5.000000 -2.500000 0.000000
-5.000000 -3.750000 0.000000
-5.000000 4.375000 0.000000
-5.000000 3.125000 0.000000
-5.000000 1.875000 0.000000
-5.000000 0.625000 0.000000
-5.000000 -0.625000 0.000000
-5.000000 -1.875000 0.000000
-5.000000 -3.125000 0.000000
-5.000000 -4.375000 0.000000
-3.750000 -5.000000 0.000000
-2.500000 -5.000000 0.000000
-1.250000 -5.000000 0.000000
-0.000000 -5.000000 0.000000
1.250000 -5.000000 0.000000
2.500000 -5.000000 0.000000
3.750000 -5.000000 0.000000
-4.375000 -5.000000 0.000000
-3.125000 -5.000000 0.000000
-1.875000 -5.000000 0.000000
-0.625000 -5.000000 0.000000
0.625000 -5.000000 0.000000
1.875000 -5.000000 0.000000
3.125000 -5.000000 0.000000
4.375000 -5.000000 0.000000
0.810307 -0.810307 0.000000
0.913507 -0.913507 0.000000
1.037347 -1.037347 0.000000
1.161187 -1.161187 0.000000
1.309795 -1.309795 0.000000
1.458403 -1.458403 0.000000
1.636732 -1.636732 0.000000
1.815062 -1.815062 0.000000
2.029057 -2.029057 0.000000
2.243053 -2.243053 0.000000
2.499848 -2.499848 0.000000
2.756642 -2.756642 0.000000
3.064796 -3.064796 0.000000
3.372949 -3.372949 0.000000
3.742734 -3.742734 0.000000
4.112518 -4.112518 0.000000
4.556259 -4.556259 0.000000
0.758707 -0.758707 0.000000
0.861907 -0.861907 0.000000
0.975427 -0.975427 0.000000
1.099267 -1.099267 0.000000
1.235491 -1.235491 0.000000
1.384099 -1.384099 0.000000
1.547568 -1.547568 0.000000
1.725897 -1.725897 0.000000
1.922060 -1.922060 0.000000
2.136055 -2.136055 0.000000
2.371450 -2.371450 0.000000
2.628245 -2.628245 0.000000
2.910719 -2.910719 0.000000
3.218873 -3.218873 0.000000
3.557841 -3.557841 0.000000
3.927626 -3.927626 0.000000
4.334388 -4.334388 0.000000
4.778129 -4.778129 0.000000
0.810307 0.810307 0.000000
0.913507 0.913507 0.000000
1.037347 1.037347 0.000000
1.161187 1.161187 0.000000
1.309795 1.309795 0.000000
1.458403 1.458403 0.000000
1.636732 1.636732 0.000000
1.815062 1.815062 0.000000
2.029057 2.029057 0.000000
2.243053 2.243053 0.000000
2.499848 2.499848 0.000000
2.756642 2.756642 0.000000
3.064796 3.064796 0.000000
3.372949 3.372949 0.000000
3.742734 3.742734 0.000000
4.112518 4.112518 0.000000
4.556259 4.556259 0.000000
0.758707 0.758707 0.000000
0.861907 0.861907 0.000000
0.975427 0.975427 0.000000
1.099267 1.099267 0.000000
1.235491 1.235491 0.000000
1.384099 1.384099 0.000000
1.547568 1.547568 0.000000
1.725897 1.725897 0.000000
1.922060 1.922060 0.000000
2.136055 2.136055 0.000000
2.371450 2.371450 0.000000
2.628245 2.628245 0.000000
2.910719 2.910719 0.000000
3.218873 3.218873 0.000000
3.557841 3.557841 0.000000
3.927626 3.927626 0.000000
4.334388 4.334388 0.000000
4.778129 4.778129 0.000000
-0.810307 0.810307 0.000000
-0.913507 0.913507 0.000000
-1.037347 1.037347 0.000000
-1.161187 1.161187 0.000000
-1.309795 1.309795 0.000000
-1.458403 1.458403 0.000000
-1.636732 1.636732 0.000000
-1.815062 1.815062 0.000000
-2.029057 2.029057 0.000000
-2.243053 2.243053 0.000000
-2.499848 2.499848 0.000000
-2.756642 2.756642 0.000000
-3.064796 3.064796 0.000000
-3.372949 3.372949 0.000000
-3.742734 3.742734 0.000000
-4.112518 4.112518 0.000000
-4.556259 4.556259 0.000000
-0.758707 0.758707 0.000000
-0.861907 0.861907 0.000000
-0.975427 0.975427 0.000000
-1.099267 1.099267 0.000000
-1.235491 1.235491 0.000000
-1.384099 1.384099 0.000000
-1.547568 1.547568 0.000000
-1.725897 1.725897 0.000000
-1.922060 1.922060 0.000000
-2.136055 2.136055 0.000000
-2.371450 2.371450 0.000000
-2.628245 2.628245 0.000000
-2.910719 2.910719 0.000000
-3.218873 3.218873 0.000000
-3.557841 3.557841 0.000000
-3.927626 3.927626 0.000000
-4.334388 4.334388 0.000000
-4.778129 4.778129 0.000000
-0.810307 -0.810307 0.000000
-0.913507 -0.913507 0.000000
-1.037347 -1.037347 0.000000
-1.161187 -1.161187 0.000000
-1.309795 -1.309795 0.000000
-1.458403 -1.458403 0.000000
-1.636732 -1.636732 0.000000
-1.815062 -1.815062 0.000000
-2.029057 -2.029057 0.000000
-2.243053 -2.243053 0.000000
-2.499848 -2.499848 0.000000
-2.756642 -2.756642 0.000000
-3.064796 -3.064796 0.000000
-3.372949 -3.372949 0.000000
-3.742734 -3.742734 0.000000
-4.112518 -4.112518 0.000000
-4.556259 -4.556259 0.000000
-0.758707 -0.758707 0.000000
-0.861907 -0.861907 0.000000
-0.975427 -0.975427 0.000000
-1.099267 -1.099267 0.000000
-1.235491 -1.235491 0.000000
-1.384099 -1.384099 0.000000
-1.547568 -1.547568 0.000000
-1.725897 -1.725897 0.000000
-1.922060 -1.922060 0.000000
-2.136055 -2.136055 0.000000
-2.371450 -2.371450 0.000000
-2.628245 -2.628245 0.000000
-2.910719 -2.910719 0.000000
-3.218873 -3.218873 0.000000
-3.557841 -3.557841 0.000000
-3.927626 -3.927626 0.000000
-4.334388 -4.334388 0.000000
-4.778129 -4.778129 0.000000
1.094227 -0.475145 0.000000
1.192318 -0.000000 0.000000
1.094263 0.475133 0.000000
1.331102 -0.598521 0.000000
1.423099 -0.000000 0.000000
1.329458 0.597968 0.000000
1.619869 -0.748427 0.000000
1.700037 -0.000000 0.000000
1.619282 0.748135 0.000000
1.964846 -0.927708 0.000000
2.019948 0.000000 0.000000
1.965087 0.927603 0.000000
2.380706 -1.143085 0.000000
2.426191 -0.000037 0.000000
2.380838 1.143189 0.000000
2.880864 -1.401582 0.000000
2.918082 -0.000038 0.000000
2.880972 1.401837 0.000000
3.483018 -1.712694 0.000000
3.510562 -0.000293 0.000000
3.482223 1.712253 0.000000
4.195106 -2.081396 0.000000
4.211000 0.000152 0.000000
4.197691 2.082596 0.000000
1.013221 -0.700621 0.000000
0.998025 -0.424069 0.000000
0.912936 -0.621915 0.000000
1.152151 -0.240193 0.000000
1.079607 -0.000027 0.000000
1.058688 -0.215811 0.000000
1.151822 0.240076 0.000000
0.996939 0.423718 0.000000
1.058073 0.215645 0.000000
1.012938 0.700511 0.000000
0.913073 0.621965 0.000000
1.256844 -0.887013 0.000000
1.205930 -0.533536 0.000000
1.129682 -0.789552 0.000000
1.388120 -0.302079 0.000000
1.307709 -0.000000 0.000000
1.265093 -0.269670 0.000000
1.387245 0.301768 0.000000
1.205885 0.533442 0.000000
1.262972 0.268945 0.000000
1.255966 0.886700 0.000000
1.128391 0.789086 0.000000
1.550668 -1.111381 0.000000
1.470982 -0.670625 0.000000
1.397630 -0.994218 0.000000
1.669602 -0.376788 0.000000
1.561568 -0.000000 0.000000
1.524265 -0.338114 0.000000
1.667792 0.376229 0.000000
1.467535 0.669595 0.000000
1.521776 0.337283 0.000000
1.549580 1.111046 0.000000
1.395897 0.993737 0.000000
1.901923 -1.380305 0.000000
1.783738 -0.833918 0.000000
1.717472 -1.239582 0.000000
2.004147 -0.466174 0.000000
1.844312 -0.000125 0.000000
1.829856 -0.419536 0.000000
2.005734 0.466127 0.000000
1.784029 0.833764 0.000000
1.827979 0.419111 0.000000
1.901674 1.380174 0.000000
1.718268 1.239492 0.000000
2.325193 -1.703384 0.000000
2.162611 -1.030573 0.000000
2.103969 -1.534115 0.000000
2.414410 -0.574036 0.000000
2.213673 0.000094 0.000000
2.199947 -0.517507 0.000000
2.414681 0.573921 0.000000
2.162850 1.030574 0.000000
2.199801 0.517647 0.000000
2.325181 1.703320 0.000000
2.103976 1.534073 0.000000
2.833668 -2.091242 0.000000
2.619755 -1.266778 0.000000
2.567641 -1.888302 0.000000
2.909645 -0.703189 0.000000
2.661233 -0.000137 0.000000
2.650510 -0.635559 0.000000
2.910775 0.703628 0.000000
2.620156 1.267295 0.000000
[...]
POINT_DATA 1792
VECTORS sol double
+8.485281 +8.485281 0
-8.485281 +8.485281 0
-8.485281 -8.485281 0
+8.485281 -8.485281 0
-0.169706 -0.169706 0
+0.169706 -0.169706 0
+0.169706 +0.169706 0
-0.169706 +0.169706 0
+6.666843 +9.977635 0
+4.592201 +11.086554 0
+2.341084 +11.769423 0
+0.000000 +12.000000 0
-2.341084 +11.769423 0
-4.592201 +11.086554 0
-6.666843 +9.977635 0
+7.612719 +9.276125 0
+5.656761 +10.583055 0
+3.483416 +11.483284 0
+1.176206 +11.942217 0
-1.176206 +11.942217 0
-3.483416 +11.483284 0
-5.656761 +10.583055 0
-7.612719 +9.276125 0
-9.977635 +6.666843 0
-11.086554 +4.592201 0
-11.769423 +2.341084 0
-12.000000 +0.000000 0
-11.769423 -2.341084 0
-11.086554 -4.592201 0
-9.977635 -6.666843 0
-9.276125 +7.612719 0
-10.583055 +5.656761 0
-11.483284 +3.483416 0
-11.942217 +1.176206 0
-11.942217 -1.176206 0
-11.483284 -3.483416 0
-10.583055 -5.656761 0
-9.276125 -7.612719 0
-6.666843 -9.977635 0
-4.592201 -11.086554 0
-2.341084 -11.769423 0
-0.000000 -12.000000 0
+2.341084 -11.769423 0
+4.592201 -11.086554 0
+6.666843 -9.977635 0
-7.612719 -9.276125 0
-5.656761 -10.583055 0
-3.483416 -11.483284 0
-1.176206 -11.942217 0
+1.176206 -11.942217 0
+3.483416 -11.483284 0
+5.656761 -10.583055 0
+7.612719 -9.276125 0
+9.977635 -6.666843 0
+11.086554 -4.592201 0
+11.769423 -2.341084 0
+12.000000 -0.000000 0
+11.769423 +2.341084 0
+11.086554 +4.592201 0
+9.977635 +6.666843 0
+9.276125 -7.612719 0
+10.583055 -5.656761 0
+11.483284 -3.483416 0
+11.942217 -1.176206 0
+11.942217 +1.176206 0
+11.483284 +3.483416 0
+10.583055 +5.656761 0
+9.276125 +7.612719 0
+0.245760 -0.184320 0
+0.343460 -0.171730 0
+0.438276 -0.109569 0
+0.480000 -0.000000 0
+0.438276 +0.109569 0
+0.343460 +0.171730 0
+0.245760 +0.184320 0
+0.204594 -0.179020 0
+0.292702 -0.182939 0
+0.394028 -0.147760 0
+0.468966 -0.058621 0
+0.468966 +0.058621 0
+0.394028 +0.147760 0
+0.292702 +0.182939 0
+0.204594 +0.179020 0
+0.184320 +0.245760 0
+0.171730 +0.343460 0
+0.109569 +0.438276 0
+0.000000 +0.480000 0
-0.109569 +0.438276 0
-0.171730 +0.343460 0
-0.184320 +0.245760 0
+0.179020 +0.204594 0
+0.182939 +0.292702 0
+0.147760 +0.394028 0
+0.058621 +0.468966 0
-0.058621 +0.468966 0
-0.147760 +0.394028 0
-0.182939 +0.292702 0
-0.179020 +0.204594 0
-0.245760 +0.184320 0
-0.343460 +0.171730 0
-0.438276 +0.109569 0
-0.480000 +0.000000 0
-0.438276 -0.109569 0
-0.343460 -0.171730 0
-0.245760 -0.184320 0
-0.204594 +0.179020 0
-0.292702 +0.182939 0
-0.394028 +0.147760 0
-0.468966 +0.058621 0
-0.468966 -0.058621 0
-0.394028 -0.147760 0
-0.292702 -0.182939 0
-0.204594 -0.179020 0
-0.184320 -0.245760 0
-0.171730 -0.343460 0
-0.109569 -0.438276 0
-0.000000 -0.480000 0
+0.109569 -0.438276 0
+0.171730 -0.343460 0
+0.184320 -0.245760 0
-0.179020 -0.204594 0
-0.182939 -0.292702 0
-0.147760 -0.394028 0
-0.058621 -0.468966 0
+0.058621 -0.468966 0
+0.147760 -0.394028 0
+0.182939 -0.292702 0
+0.179020 -0.204594 0
+7.337806 -7.337799 0
+6.442761 -6.442776 0
+5.593690 -5.593703 0
+4.917199 -4.917188 0
+4.264028 -4.264031 0
+3.734441 -3.734439 0
+3.214737 -3.214732 0
+2.786846 -2.786844 0
+2.361011 -2.361011 0
+2.006021 -2.006021 0
+1.649348 -1.649349 0
+1.350505 -1.350504 0
+1.051113 -1.051113 0
+0.804187 -0.804190 0
+0.566325 -0.566325 0
+0.385478 -0.385476 0
+0.239261 -0.239261 0
+7.875427 -7.875413 0
+6.864018 -6.864037 0
+5.992284 -5.992250 0
+5.237260 -5.237275 0
+4.572171 -4.572175 0
+3.986106 -3.986097 0
+3.460996 -3.461006 0
+2.990966 -2.990967 0
+2.563561 -2.563559 0
+2.175854 -2.175854 0
+1.819372 -1.819373 0
+1.493554 -1.493552 0
+1.193528 -1.193523 0
+0.921642 -0.921653 0
+0.677760 -0.677756 0
+0.469023 -0.469020 0
+0.302881 -0.302884 0
+0.194887 -0.194887 0
+7.337820 +7.337782 0
+6.442773 +6.442771 0
+5.593683 +5.593706 0
+4.917198 +4.917206 0
+4.264023 +4.264032 0
+3.734433 +3.734432 0
+3.214735 +3.214737 0
+2.786846 +2.786845 0
+2.361010 +2.361009 0
+2.006021 +2.006021 0
+1.649348 +1.649348 0
+1.350505 +1.350504 0
+1.051114 +1.051113 0
+0.804188 +0.804188 0
+0.566324 +0.566325 0
+0.385477 +0.385478 0
+0.239260 +0.239260 0
+7.875427 +7.875400 0
+6.863989 +6.864063 0
+5.992304 +5.992244 0
+5.237254 +5.237283 0
+4.572184 +4.572160 0
+3.986100 +3.986113 0
+3.461004 +3.460995 0
+2.990959 +2.990967 0
+2.563563 +2.563563 0
+2.175851 +2.175853 0
+1.819373 +1.819372 0
+1.493553 +1.493553 0
+1.193528 +1.193524 0
+0.921644 +0.921651 0
+0.677759 +0.677755 0
+0.469020 +0.469024 0
+0.302883 +0.302879 0
+0.194887 +0.194888 0
-7.337817 +7.337791 0
-6.442763 +6.442777 0
-5.593698 +5.593702 0
-4.917198 +4.917204 0
-4.264018 +4.264035 0
-3.734434 +3.734433 0
-3.214736 +3.214733 0
-2.786845 +2.786845 0
-2.361011 +2.361010 0
-2.006021 +2.006021 0
-1.649347 +1.649348 0
-1.350503 +1.350505 0
-1.051115 +1.051115 0
-0.804189 +0.804188 0
-0.566324 +0.566325 0
-0.385477 +0.385478 0
-0.239260 +0.239260 0
-7.875400 +7.875420 0
-6.864014 +6.864038 0
-5.992293 +5.992258 0
-5.237248 +5.237286 0
-4.572188 +4.572157 0
-3.986102 +3.986105 0
-3.460997 +3.461005 0
-2.990965 +2.990963 0
-2.563560 +2.563562 0
-2.175854 +2.175854 0
-1.819372 +1.819373 0
-1.493553 +1.493553 0
-1.193526 +1.193526 0
-0.921649 +0.921648 0
-0.677756 +0.677756 0
-0.469021 +0.469022 0
-0.302884 +0.302881 0
-0.194886 +0.194888 0
-7.337781 -7.337812 0
-6.442758 -6.442771 0
-5.593720 -5.593689 0
-4.917198 -4.917205 0
-4.264019 -4.264030 0
-3.734438 -3.734429 0
-3.214738 -3.214732 0
-2.786845 -2.786845 0
-2.361011 -2.361011 0
-2.006021 -2.006021 0
-1.649348 -1.649348 0
-1.350504 -1.350504 0
-1.051114 -1.051113 0
-0.804188 -0.804188 0
-0.566325 -0.566325 0
-0.385478 -0.385478 0
-0.239260 -0.239260 0
-7.875403 -7.875430 0
-6.864052 -6.863993 0
-5.992256 -5.992288 0
-5.237262 -5.237272 0
-4.572188 -4.572160 0
-3.986099 -3.986106 0
-3.460992 -3.461009 0
-2.990968 -2.990960 0
-2.563560 -2.563560 0
-2.175853 -2.175854 0
-1.819373 -1.819371 0
-1.493551 -1.493555 0
-1.193530 -1.193522 0
-0.921645 -0.921649 0
-0.677755 -0.677760 0
-0.469024 -0.469020 0
-0.302881 -0.302881 0
-0.194888 -0.194888 0
+9.114034 -3.958481 0
+9.940303 +0.000020 0
+9.113876 +3.958177 0
+7.253289 -3.264260 0
+8.179391 -0.000000 0
+7.262614 +3.269471 0
+5.717980 -2.647523 0
+6.667092 -0.000001 0
+5.720533 +2.648605 0
+4.454779 -2.113201 0
+5.401431 -0.000001 0
+4.454503 +2.112585 0
+3.386537 -1.642259 0
+4.228420 -0.000066 0
+3.386206 +1.642159 0
+2.465709 -1.224377 0
+3.183642 -0.000043 0
+2.465360 +1.224383 0
+1.653820 -0.846467 0
+2.232036 -0.000201 0
+1.654762 +0.846903 0
+0.939583 -0.498495 0
+1.340371 +0.000055 0
+0.937391 +0.497346 0
+7.893402 -5.458906 0
+10.132964 -4.305441 0
+8.921568 -6.076609 0
+9.869729 -2.058329 0
+11.061218 -0.000279 0
+10.828944 -2.207755 0
+9.872944 +2.058574 0
+10.143948 +4.311244 0
+10.835843 +2.208730 0
+7.895143 +5.460802 0
+8.920529 +6.075484 0
+6.122783 -4.323640 0
+8.143793 -3.604865 0
+6.951831 -4.860252 0
+8.008668 -1.744540 0
+8.985625 +0.000007 0
+8.895193 -1.897134 0
+8.014594 +1.745163 0
+8.144499 +3.604663 0
+8.912476 +1.898894 0
+6.126183 +4.327501 0
+6.958022 +4.867249 0
+4.725100 -3.391283 0
+6.437943 -2.939185 0
+5.382924 -3.832659 0
+6.453129 -1.459770 0
+7.360549 +0.000010 0
+7.188378 -1.597103 0
+6.461704 +1.461094 0
+6.453536 +2.948664 0
+7.202500 +1.598878 0
+4.727723 +3.394524 0
+5.387806 +3.839030 0
+3.598776 -2.619983 0
+5.059896 -2.373079 0
+4.135195 -2.990836 0
+5.141140 -1.202232 0
+6.047291 -0.000438 0
+5.769625 -1.327571 0
+5.136455 +1.200069 0
+5.059562 +2.372110 0
+5.776885 +1.329254 0
+3.599311 +2.620466 0
+4.134465 +2.988717 0
+2.663695 -1.964561 0
+3.900243 -1.871392 0
+3.111247 -2.279056 0
+3.988208 -0.958804 0
+4.795649 +0.000214 0
+4.544085 -1.077193 0
+3.987727 +0.958388 0
+3.899836 +1.870991 0
+4.544308 +1.077618 0
+2.663794 +1.964571 0
+3.111312 +2.279034 0
+1.871982 -1.400935 0
+2.909318 -1.427089 0
+2.252523 -1.672774 0
+2.973964 -0.735219 0
+3.690557 -0.000197 0
+3.466217 -0.844496 0
+2.971879 +0.734901 0
+2.908231 +1.426932 0
+3.465603 +0.844490 0
+1.872040 +1.400996 0
+2.251940 +1.672461 0
+1.196988 -0.913035 0
+2.047062 -1.030876 0
+1.519871 -1.147456 0
+2.064958 -0.528799 0
+2.699054 -0.000114 0
+2.506915 -0.629928 0
+2.062114 +0.527831 0
+2.046724 +1.030775 0
+2.505260 +0.629616 0
+1.197267 +0.913278 0
+1.519929 +1.147526 0
+0.637311 -0.496388 0
+1.288316 -0.671535 0
+0.901737 -0.695571 0
+1.217407 -0.325245 0
+1.777205 -0.000028 0
+1.634382 -0.427459 0
+1.218394 +0.325560 0
+1.283454 +0.669015 0
+1.628528 +0.425986 0
+0.637755 +0.496772 0
+0.900557 +0.694627 0
+0.621058 -0.331110 0
+0.415121 -0.323185 0
+0.904558 +0.000049 0
+0.817567 -0.220284 0
+0.621211 +0.331231 0
+0.816981 +0.220177 0
+0.414588 +0.322735 0
+8.176379 -6.796918 0
+9.423525 -6.362223 0
+7.197034 -6.030269 0
+8.378839 -5.753643 0
+8.569969 -4.782675 0
+9.599187 -4.126464 0
+9.611554 -5.262046 0
+10.591879 -4.446055 0
+10.589840 -3.295448 0
+11.282867 -2.273294 0
+9.590037 -3.055134 0
+10.329405 -2.130871 0
+10.015392 -1.026273 0
+10.474077 -0.000117 0
+11.060652 -1.116309 0
+11.514662 -0.000156 0
+11.064212 +1.115842 0
+11.286573 +2.273781 0
+10.016982 +1.026062 0
+10.334308 +2.131487 0
+9.591461 +3.055483 0
+9.604080 +4.128962 0
+10.599150 +3.298422 0
+10.597818 +4.449147 0
+9.615710 +5.265400 0
+9.422952 +6.361638 0
+8.571029 +4.783290 0
+8.379361 +5.754142 0
+7.197674 +6.031310 0
+8.175983 +6.796289 0
+6.286391 -5.300728 0
+7.396114 -5.145025 0
+5.528693 -4.684544 0
+6.514964 -4.578955 0
+6.727880 -3.864916 0
+7.676379 -3.427864 0
+7.598623 -4.306689 0
+8.604826 -3.775089 0
+8.608317 -2.800074 0
+9.360193 -1.975320 0
+7.709793 -2.556243 0
+8.432012 -1.818700 0
+8.193088 -0.881612 0
+8.566388 +0.000030 0
+9.045331 -0.948981 0
+9.441922 -0.000017 0
+9.053929 +0.948111 0
+9.371086 +1.976361 0
+8.196098 +0.881305 0
+8.443147 +1.819839 0
+7.717897 +2.558808 0
+7.681819 +3.430593 0
+8.616883 +2.802431 0
+8.605159 +3.774854 0
+7.602839 +4.309727 0
+7.400327 +5.149749 0
+6.733897 +3.869907 0
+6.519608 +4.584266 0
+5.529960 +4.686597 0
+6.288702 +5.304475 0
+4.823547 -4.106812 0
+5.733357 -4.066431 0
+4.228411 -3.613831 0
+5.037411 -3.601695 0
+5.244977 -3.082215 0
+6.060970 -2.787672 0
+5.941682 -3.452505 0
+6.825460 -3.095085 0
+6.882195 -2.321580 0
+7.580111 -1.668509 0
+6.146412 -2.107513 0
+6.804902 -1.526376 0
+6.647644 -0.745595 0
+7.000190 +0.000007 0
+7.367881 -0.808964 0
+7.752150 -0.000010 0
+7.375023 +0.808407 0
+7.590520 +1.669729 0
+6.652038 +0.745388 0
+6.816018 +1.527950 0
+6.151763 +2.109287 0
+6.069440 +2.792587 0
+6.897725 +2.327127 0
+6.838250 +3.102651 0
+5.951324 +3.461176 0
+5.737569 +4.071708 0
+5.247774 +3.084422 0
+5.041084 +3.606325 0
+4.229395 +3.615504 0
+4.825320 +4.110077 0
+3.668002 -3.149011 0
+4.415703 -3.182097 0
+3.186334 -2.743931 0
+3.854337 -2.797095 0
+4.039714 -2.420869 0
+4.743631 -2.238007 0
+4.615119 -2.740570 0
+5.373741 -2.504867 0
+5.468303 -1.903435 0
+6.096786 -1.391687 0
+4.844331 -1.709943 0
+5.442310 -1.262856 0
+5.347258 -0.622889 0
+5.711165 -0.000173 0
+5.989582 -0.686881 0
+6.345666 -0.000237 0
+5.993492 +0.686598 0
+6.104659 +1.393215 0
+5.344657 +0.622295 0
+5.443101 +1.262456 0
+4.842151 +1.708208 0
+4.743347 +2.237203 0
+5.471307 +1.904406 0
+5.374710 +2.504833 0
+4.614464 +2.739019 0
+4.416504 +3.182382 0
+4.039974 +2.420787 0
+3.854288 +2.796413 0
+3.186545 +2.744182 0
+3.667825 +3.148020 0
+2.726570 -2.356737 0
+3.343837 -2.442135 0
+2.326546 -2.017530 0
+2.877578 -2.115127 0
+3.031378 -1.849362 0
+3.632455 -1.752369 0
+3.514779 -2.125218 0
+4.165373 -1.987568 0
+4.263270 -1.524000 0
+4.830215 -1.137515 0
+3.723363 -1.347559 0
+4.254946 -1.015952 0
+4.173036 -0.500534 0
+4.500941 +0.000061 0
+4.740118 -0.560110 0
+5.086359 +0.000106 0
+4.740229 +0.560491 0
+4.828180 +1.136762 0
+4.172758 +0.500312 0
+4.254793 +1.015916 0
+3.723001 +1.347312 0
+3.632090 +1.752133 0
+4.263066 +1.524036 0
+4.165015 +1.987082 0
+3.514656 +2.124988 0
+3.344118 +2.442338 0
+3.031283 +1.849285 0
+2.877661 +2.115122 0
+2.326592 +2.017542 0
+2.726603 +2.356734 0
+1.940865 -1.690061 0
+2.449221 -1.812645 0
+1.602940 -1.401159 0
+2.054205 -1.531295 0
+2.170905 -1.350685 0
+2.678732 -1.322017 0
+2.584900 -1.591821 0
+3.138116 -1.530587 0
+3.219371 -1.179924 0
+3.717047 -0.899661 0
+2.747463 -1.020659 0
+3.210923 -0.788032 0
+3.132640 -0.386790 0
+3.427944 -0.000108 0
+3.637620 -0.442436 0
+3.949263 -0.000139 0
+3.637366 +0.442313 0
+3.716494 +0.899475 0
+3.131573 +0.386790 0
+3.209517 +0.787860 0
+2.746341 +1.020376 0
+2.678046 +1.321941 0
+3.218514 +1.179890 0
+3.137371 +1.530464 0
+2.584074 +1.591541 0
+2.448948 +1.812481 0
+2.170776 +1.350688 0
+2.053970 +1.531184 0
+1.602962 +1.401188 0
+1.940618 +1.689881 0
+1.276491 -1.121633 0
+1.688424 -1.269085 0
+0.993709 -0.877732 0
+1.351401 -1.025460 0
+1.425077 -0.909469 0
+1.843089 -0.935656 0
+1.784095 -1.123158 0
+2.248332 -1.124213 0
+2.300697 -0.867962 0
+2.732213 -0.680935 0
+1.879061 -0.721726 0
+2.278760 -0.578000 0
+2.191389 -0.280460 0
+2.458275 -0.000162 0
+2.651369 -0.332922 0
+2.933117 -0.000084 0
+2.650535 +0.332809 0
+2.730360 +0.680619 0
+2.189889 +0.280038 0
+2.276481 +0.577327 0
+1.878364 +0.721238 0
+1.843442 +0.935836 0
+2.299771 +0.867661 0
+2.247989 +1.124161 0
+1.783985 +1.123124 0
+1.688482 +1.269152 0
+1.425652 +0.909845 0
+1.351577 +1.025627 0
+0.993821 +0.877849 0
+1.276511 +1.121665 0
+0.727262 -0.646388 0
+1.042352 -0.799710 0
+0.507634 -0.452957 0
+0.762281 -0.591237 0
+0.786340 -0.517022 0
+1.107394 -0.582836 0
+1.093467 -0.708703 0
+1.464416 -0.756447 0
+1.477592 -0.578896 0
+1.843237 -0.477043 0
+1.090535 -0.435908 0
+1.420398 -0.375772 0
+1.308370 -0.174926 0
+1.553973 +0.000013 0
+1.742525 -0.227824 0
+1.998379 -0.000102 0
+1.739412 +0.227526 0
+1.838796 +0.475834 0
+1.308892 +0.175048 0
+1.418141 +0.375225 0
+1.089664 +0.435643 0
+1.103955 +0.581051 0
+1.472163 +0.576818 0
+1.462247 +0.755312 0
+1.090734 +0.706864 0
+1.041840 +0.799297 0
+0.785737 +0.516615 0
+0.761989 +0.591020 0
+0.507797 +0.453127 0
+0.726797 +0.645939 0
+0.323632 -0.288167 0
+0.518656 -0.404918 0
+0.322828 -0.248519 0
+0.476211 -0.250359 0
+0.515872 -0.340138 0
+0.774030 -0.413178 0
+0.726865 -0.292671 0
+1.013076 -0.272886 0
+0.624581 -0.165962 0
+0.690566 +0.000017 0
+0.881952 -0.118993 0
+1.118984 +0.000058 0
+0.881630 +0.119035 0
+1.013239 +0.272986 0
+0.624305 +0.165902 0
+0.476286 +0.250416 0
+0.726708 +0.292642 0
+0.773090 +0.412694 0
+0.515567 +0.339939 0
+0.518550 +0.404844 0
+0.322599 +0.248321 0
+0.323449 +0.287985 0
+3.964907 +9.123560 0
+0.000158 +10.103636 0
-3.966580 +9.126544 0
+3.270263 +7.260860 0
+0.000733 +8.286391 0
-3.270943 +7.263454 0
+2.650677 +5.722214 0
+0.000210 +6.756063 0
-2.649735 +5.722392 0
+2.115118 +4.457373 0
-0.000147 +5.412739 0
-2.112943 +4.455063 0
+1.642212 +3.386714 0
-0.000145 +4.228382 0
-1.641791 +3.385629 0
+1.224966 +2.467067 0
-0.000025 +3.182967 0
-1.224352 +2.465578 0
+0.847800 +1.656600 0
-0.000085 +2.232585 0
-0.846197 +1.653314 0
+0.498907 +0.940373 0
-0.000136 +1.337887 0
-0.498992 +0.940382 0
+5.449588 +7.884391 0
+4.307479 +10.135060 0
+6.077768 +8.921759 0
+2.059065 +9.871415 0
-0.000742 +11.060251 0
+2.209137 +10.841054 0
-2.059538 +9.872512 0
-4.312003 +10.142693 0
-2.217574 +10.866581 0
-5.453624 +7.888476 0
-6.072776 +8.917857 0
+4.323738 +6.122580 0
+3.603962 +8.140558 0
+4.866512 +6.956258 0
+1.748152 +8.017535 0
-0.000028 +8.985222 0
+1.898437 +8.900466 0
-1.749496 +8.028332 0
-3.601538 +8.137625 0
-1.898030 +8.903440 0
-4.325912 +6.124816 0
-4.867634 +6.957647 0
+3.394917 +4.727835 0
+2.951060 +6.454430 0
+3.841878 +5.389564 0
+1.473325 +6.489694 0
+0.000319 +7.463507 0
+1.610769 +7.228424 0
-1.470510 +6.483314 0
-2.950757 +6.455438 0
-1.613578 +7.241251 0
-3.396975 +4.729598 0
-3.841688 +5.389836 0
+2.620812 +3.599688 0
+2.376410 +5.064247 0
+2.992636 +4.136567 0
+1.205403 +5.149781 0
+0.000069 +6.049477 0
+1.335750 +5.792030 0
-1.201779 +5.140555 0
-2.373994 +5.062253 0
-1.333501 +5.786816 0
-2.620780 +3.599599 0
-2.991781 +4.136379 0
+1.964618 +2.663911 0
+1.871967 +3.901318 0
+2.278917 +3.112422 0
+0.958885 +3.988693 0
-0.000252 +4.804080 0
+1.077777 +4.545878 0
-0.958699 +3.987663 0
-1.871664 +3.900407 0
-1.078252 +4.545984 0
-1.964315 +2.663509 0
-2.278990 +3.111248 0
+1.401287 +1.872386 0
+1.427141 +2.909597 0
+1.672953 +2.252747 0
+0.735180 +2.974262 0
-0.000031 +3.690203 0
+0.844132 +3.465140 0
-0.734949 +2.972568 0
-1.426680 +2.908449 0
-0.844309 +3.464141 0
-1.400612 +1.871609 0
-1.672131 +2.251578 0
+0.912346 +1.196188 0
+1.032453 +2.050309 0
+1.149020 +1.521802 0
+0.527460 +2.060269 0
+0.000012 +2.694180 0
+0.630005 +2.507320 0
-0.527820 +2.061410 0
-1.031016 +2.047383 0
-0.630460 +2.509260 0
-0.913266 +1.197273 0
-1.147709 +1.520226 0
+0.496359 +0.637275 0
+0.669949 +1.285430 0
+0.694784 +0.900818 0
+0.325001 +1.216683 0
-0.000206 +1.775653 0
+0.425813 +1.628583 0
-0.325960 +1.219496 0
-0.669913 +1.285100 0
-0.426525 +1.630023 0
-0.496371 +0.637275 0
-0.694056 +0.899878 0
+0.331472 +0.621653 0
+0.323019 +0.414914 0
-0.000070 +0.906098 0
+0.220812 +0.819396 0
-0.331293 +0.621331 0
-0.220471 +0.818057 0
-0.323217 +0.415151 0
+6.797485 +8.176375 0
+6.362867 +9.423628 0
+6.025110 +7.193562 0
+5.749075 +8.373899 0
+4.782682 +8.568447 0
+4.130802 +9.605350 0
+5.263835 +9.612543 0
+4.447159 +10.593025 0
+3.298170 +10.596806 0
+2.274009 +11.289350 0
+3.057936 +9.596319 0
+2.132229 +10.335867 0
+1.042627 +10.097490 0
-0.000297 +10.562498 0
+1.115673 +11.066436 0
-0.000365 +11.514174 0
-1.118103 +11.079694 0
-2.278460 +11.303041 0
-1.042664 +10.098126 0
-2.136407 +10.348158 0
-3.058807 +9.598486 0
-4.133713 +9.610468 0
-3.306248 +10.612742 0
-4.449621 +10.597146 0
-5.264583 +9.613378 0
-6.360157 +9.421466 0
-4.785396 +8.572244 0
-5.749045 +8.374439 0
-6.027362 +7.195140 0
-6.794773 +8.174947 0
+5.303995 +6.287922 0
+5.144247 +7.394577 0
+4.684567 +5.528577 0
+4.581862 +6.516821 0
+3.868478 +6.730746 0
+3.430697 +7.679050 0
+4.308776 +7.600085 0
+3.777587 +8.607364 0
+2.801066 +8.608947 0
+1.976067 +9.363846 0
+2.561241 +7.718132 0
+1.821457 +8.439326 0
+0.893806 +8.250511 0
+0.000397 +8.623866 0
+0.949033 +9.047994 0
+0.000068 +9.515894 0
-0.948521 +9.049397 0
-1.976065 +9.365963 0
-0.892625 +8.256188 0
-1.821970 +8.446567 0
-2.563032 +7.724579 0
-3.429972 +7.679149 0
-2.800258 +8.608686 0
-3.777039 +8.607088 0
-4.307825 +7.599736 0
-5.146668 +7.397179 0
-3.869970 +6.733262 0
-4.583581 +6.518674 0
-4.685746 +5.529450 0
-5.304629 +6.288480 0
+4.111503 +4.825904 0
+4.071573 +5.736923 0
+3.615684 +4.229414 0
+3.607825 +5.041940 0
+3.085722 +5.248460 0
+2.794823 +6.070760 0
+3.463704 +5.952713 0
+3.104370 +6.837939 0
+2.336451 +6.909557 0
+1.677519 +7.605981 0
+2.118562 +6.164944 0
+1.540014 +6.843102 0
+0.757532 +6.710897 0
+0.000219 +7.095701 0
+0.822211 +7.439925 0
+0.000510 +7.857145 0
-0.822030 +7.446641 0
-1.679662 +7.617895 0
-0.756632 +6.707437 0
-1.539788 +6.845498 0
-2.116107 +6.162226 0
-2.794122 +6.071333 0
-2.338719 +6.915906 0
-3.104524 +6.839661 0
-3.463528 +5.953353 0
-4.072441 +5.738084 0
-3.086250 +5.249762 0
-3.608883 +5.043031 0
-3.616748 +4.230078 0
-4.111439 +4.826045 0
+3.149918 +3.668504 0
+3.184726 +4.417690 0
+2.744369 +3.186699 0
+2.798370 +3.855463 0
+2.422312 +4.041316 0
+2.240535 +4.747044 0
+2.743287 +4.617738 0
+2.508140 +5.378056 0
+1.910620 +5.480703 0
+1.402164 +6.125699 0
+1.712961 +4.849662 0
+1.268366 +5.457271 0
+0.624721 +5.357437 0
-0.000058 +5.718274 0
+0.688638 +6.002911 0
+0.000136 +6.387832 0
-0.687990 +6.000044 0
-1.399656 +6.119942 0
-0.623960 +5.352360 0
-1.265368 +5.449876 0
-1.709519 +4.844244 0
-2.238240 +4.744881 0
-1.908002 +5.477175 0
-2.506397 +5.377041 0
-2.741582 +4.616850 0
-3.185178 +4.418393 0
-2.421138 +4.040377 0
-2.797969 +3.855324 0
-2.744346 +3.186659 0
-3.149527 +3.668486 0
+2.356774 +2.727124 0
+2.442422 +3.344904 0
+2.017572 +2.326644 0
+2.115104 +2.878227 0
+1.849368 +3.031586 0
+1.752611 +3.633047 0
+2.125366 +3.515825 0
+1.988739 +4.167150 0
+1.524626 +4.264690 0
+1.139283 +4.835157 0
+1.347594 +3.723673 0
+1.016247 +4.256035 0
+0.500408 +4.173304 0
-0.000196 +4.504811 0
+0.561038 +4.745176 0