# vtk DataFile Version 2.0
MyTitle
ASCII
DATASET UNSTRUCTURED_GRID
POINTS 3025 double
1.000000 0.000000 0.000000
0.500000 0.866025 0.000000
0.500000 -0.866025 0.000000
-1.000000 0.000000 0.000000
-0.500000 -0.866025 0.000000
-0.500000 0.866025 0.000000
0.000000 0.000000 0.000000
0.972222 0.048113 0.000000
0.944444 0.096225 0.000000
0.916667 0.144338 0.000000
0.888889 0.192450 0.000000
0.861111 0.240563 0.000000
0.833333 0.288675 0.000000
0.805556 0.336788 0.000000
0.777778 0.384900 0.000000
0.750000 0.433013 0.000000
0.722222 0.481125 0.000000
0.694444 0.529238 0.000000
0.666667 0.577350 0.000000
0.638889 0.625463 0.000000
0.611111 0.673575 0.000000
0.583333 0.721688 0.000000
0.555556 0.769800 0.000000
0.527778 0.817913 0.000000
0.986111 0.024056 0.000000
0.958333 0.072169 0.000000
0.930556 0.120281 0.000000
0.902778 0.168394 0.000000
0.875000 0.216506 0.000000
0.847222 0.264619 0.000000
0.819444 0.312731 0.000000
0.791667 0.360844 0.000000
0.763889 0.408956 0.000000
0.736111 0.457069 0.000000
0.708333 0.505181 0.000000
0.680556 0.553294 0.000000
0.652778 0.601407 0.000000
0.625000 0.649519 0.000000
0.597222 0.697632 0.000000
0.569444 0.745744 0.000000
0.541667 0.793857 0.000000
0.513889 0.841969 0.000000
0.472222 0.817913 0.000000
0.444444 0.769800 0.000000
0.416667 0.721688 0.000000
0.388889 0.673575 0.000000
0.361111 0.625463 0.000000
0.333333 0.577350 0.000000
0.305556 0.529238 0.000000
0.277778 0.481125 0.000000
0.250000 0.433013 0.000000
0.222222 0.384900 0.000000
0.194444 0.336788 0.000000
0.166667 0.288675 0.000000
0.138889 0.240563 0.000000
0.111111 0.192450 0.000000
0.083333 0.144338 0.000000
0.055556 0.096225 0.000000
0.027778 0.048113 0.000000
0.486111 0.841969 0.000000
0.458333 0.793857 0.000000
0.430556 0.745744 0.000000
0.402778 0.697632 0.000000
0.375000 0.649519 0.000000
0.347222 0.601407 0.000000
0.319444 0.553294 0.000000
0.291667 0.505181 0.000000
0.263889 0.457069 0.000000
0.236111 0.408956 0.000000
0.208333 0.360844 0.000000
0.180556 0.312731 0.000000
0.152778 0.264619 0.000000
0.125000 0.216506 0.000000
0.097222 0.168394 0.000000
0.069444 0.120281 0.000000
0.041667 0.072169 0.000000
0.013889 0.024056 0.000000
0.027778 -0.048113 0.000000
0.055556 -0.096225 0.000000
0.083333 -0.144338 0.000000
0.111111 -0.192450 0.000000
0.138889 -0.240563 0.000000
0.166667 -0.288675 0.000000
0.194444 -0.336788 0.000000
0.222222 -0.384900 0.000000
0.250000 -0.433013 0.000000
0.277778 -0.481125 0.000000
0.305556 -0.529238 0.000000
0.333333 -0.577350 0.000000
0.361111 -0.625463 0.000000
0.388889 -0.673575 0.000000
0.416667 -0.721688 0.000000
0.444444 -0.769800 0.000000
0.472222 -0.817913 0.000000
0.013889 -0.024056 0.000000
0.041667 -0.072169 0.000000
0.069444 -0.120281 0.000000
0.097222 -0.168394 0.000000
0.125000 -0.216506 0.000000
0.152778 -0.264619 0.000000
0.180556 -0.312731 0.000000
0.208333 -0.360844 0.000000
0.236111 -0.408956 0.000000
0.263889 -0.457069 0.000000
0.291667 -0.505181 0.000000
0.319444 -0.553294 0.000000
0.347222 -0.601407 0.000000
0.375000 -0.649519 0.000000
0.402778 -0.697632 0.000000
0.430556 -0.745744 0.000000
0.458333 -0.793857 0.000000
0.486111 -0.841969 0.000000
0.527778 -0.817913 0.000000
0.555556 -0.769800 0.000000
0.583333 -0.721688 0.000000
0.611111 -0.673575 0.000000
0.638889 -0.625463 0.000000
0.666667 -0.577350 0.000000
0.694444 -0.529238 0.000000
0.722222 -0.481125 0.000000
0.750000 -0.433013 0.000000
0.777778 -0.384900 0.000000
0.805556 -0.336788 0.000000
0.833333 -0.288675 0.000000
0.861111 -0.240563 0.000000
0.888889 -0.192450 0.000000
0.916667 -0.144338 0.000000
0.944444 -0.096225 0.000000
0.972222 -0.048113 0.000000
0.513889 -0.841969 0.000000
0.541667 -0.793857 0.000000
0.569444 -0.745744 0.000000
0.597222 -0.697632 0.000000
0.625000 -0.649519 0.000000
0.652778 -0.601407 0.000000
0.680556 -0.553294 0.000000
0.708333 -0.505181 0.000000
0.736111 -0.457069 0.000000
0.763889 -0.408956 0.000000
0.791667 -0.360844 0.000000
0.819444 -0.312731 0.000000
0.847222 -0.264619 0.000000
0.875000 -0.216506 0.000000
0.902778 -0.168394 0.000000
0.930556 -0.120281 0.000000
0.958333 -0.072169 0.000000
0.986111 -0.024056 0.000000
0.444444 0.866025 0.000000
0.388889 0.866025 0.000000
0.333333 0.866025 0.000000
0.277778 0.866025 0.000000
0.222222 0.866025 0.000000
0.166667 0.866025 0.000000
0.111111 0.866025 0.000000
0.055556 0.866025 0.000000
0.000000 0.866025 0.000000
-0.055556 0.866025 0.000000
-0.111111 0.866025 0.000000
-0.166667 0.866025 0.000000
-0.222222 0.866025 0.000000
-0.277778 0.866025 0.000000
-0.333333 0.866025 0.000000
-0.388889 0.866025 0.000000
-0.444444 0.866025 0.000000
0.472222 0.866025 0.000000
0.416667 0.866025 0.000000
0.361111 0.866025 0.000000
0.305556 0.866025 0.000000
0.250000 0.866025 0.000000
0.194444 0.866025 0.000000
0.138889 0.866025 0.000000
0.083333 0.866025 0.000000
0.027778 0.866025 0.000000
-0.027778 0.866025 0.000000
-0.083333 0.866025 0.000000
-0.138889 0.866025 0.000000
-0.194444 0.866025 0.000000
-0.250000 0.866025 0.000000
-0.305556 0.866025 0.000000
-0.361111 0.866025 0.000000
-0.416667 0.866025 0.000000
-0.472222 0.866025 0.000000
-0.527778 0.817913 0.000000
-0.555556 0.769800 0.000000
-0.583333 0.721688 0.000000
-0.611111 0.673575 0.000000
-0.638889 0.625463 0.000000
-0.666667 0.577350 0.000000
-0.694444 0.529238 0.000000
-0.722222 0.481125 0.000000
-0.750000 0.433013 0.000000
-0.777778 0.384900 0.000000
-0.805556 0.336788 0.000000
-0.833333 0.288675 0.000000
-0.861111 0.240563 0.000000
-0.888889 0.192450 0.000000
-0.916667 0.144338 0.000000
-0.944444 0.096225 0.000000
-0.972222 0.048113 0.000000
-0.513889 0.841969 0.000000
-0.541667 0.793857 0.000000
-0.569444 0.745744 0.000000
-0.597222 0.697632 0.000000
-0.625000 0.649519 0.000000
-0.652778 0.601407 0.000000
-0.680556 0.553294 0.000000
-0.708333 0.505181 0.000000
-0.736111 0.457069 0.000000
-0.763889 0.408956 0.000000
-0.791667 0.360844 0.000000
-0.819444 0.312731 0.000000
-0.847222 0.264619 0.000000
-0.875000 0.216506 0.000000
-0.902778 0.168394 0.000000
-0.930556 0.120281 0.000000
-0.958333 0.072169 0.000000
-0.986111 0.024056 0.000000
-0.944444 0.000000 0.000000
-0.888889 0.000000 0.000000
-0.833333 0.000000 0.000000
-0.777778 0.000000 0.000000
-0.722222 0.000000 0.000000
-0.666667 0.000000 0.000000
-0.611111 0.000000 0.000000
-0.555556 0.000000 0.000000
-0.500000 0.000000 0.000000
-0.444444 0.000000 0.000000
-0.388889 0.000000 0.000000
-0.333333 0.000000 0.000000
-0.277778 0.000000 0.000000
-0.222222 0.000000 0.000000
-0.166667 0.000000 0.000000
-0.111111 0.000000 0.000000
-0.055556 0.000000 0.000000
-0.972222 0.000000 0.000000
-0.916667 0.000000 0.000000
-0.861111 0.000000 0.000000
-0.805556 0.000000 0.000000
-0.750000 0.000000 0.000000
-0.694444 0.000000 0.000000
-0.638889 0.000000 0.000000
-0.583333 0.000000 0.000000
-0.527778 0.000000 0.000000
-0.472222 0.000000 0.000000
-0.416667 0.000000 0.000000
-0.361111 0.000000 0.000000
-0.305556 0.000000 0.000000
-0.250000 0.000000 0.000000
-0.194444 0.000000 0.000000
-0.138889 0.000000 0.000000
-0.083333 0.000000 0.000000
-0.027778 0.000000 0.000000
-0.972222 -0.048113 0.000000
-0.944444 -0.096225 0.000000
-0.916667 -0.144338 0.000000
-0.888889 -0.192450 0.000000
-0.861111 -0.240563 0.000000
-0.833333 -0.288675 0.000000
-0.805556 -0.336788 0.000000
-0.777778 -0.384900 0.000000
-0.750000 -0.433013 0.000000
-0.722222 -0.481125 0.000000
-0.694444 -0.529238 0.000000
-0.666667 -0.577350 0.000000
-0.638889 -0.625463 0.000000
-0.611111 -0.673575 0.000000
-0.583333 -0.721688 0.000000
-0.555556 -0.769800 0.000000
-0.527778 -0.817913 0.000000
-0.986111 -0.024056 0.000000
-0.958333 -0.072169 0.000000
-0.930556 -0.120281 0.000000
-0.902778 -0.168394 0.000000
-0.875000 -0.216506 0.000000
-0.847222 -0.264619 0.000000
-0.819444 -0.312731 0.000000
-0.791667 -0.360844 0.000000
-0.763889 -0.408956 0.000000
-0.736111 -0.457069 0.000000
-0.708333 -0.505181 0.000000
-0.680556 -0.553294 0.000000
-0.652778 -0.601407 0.000000
-0.625000 -0.649519 0.000000
-0.597222 -0.697632 0.000000
-0.569444 -0.745744 0.000000
-0.541667 -0.793857 0.000000
-0.513889 -0.841969 0.000000
-0.444444 -0.866025 0.000000
-0.388889 -0.866025 0.000000
-0.333333 -0.866025 0.000000
-0.277778 -0.866025 0.000000
-0.222222 -0.866025 0.000000
-0.166667 -0.866025 0.000000
-0.111111 -0.866025 0.000000
-0.055556 -0.866025 0.000000
-0.000000 -0.866025 0.000000
0.055556 -0.866025 0.000000
0.111111 -0.866025 0.000000
0.166667 -0.866025 0.000000
0.222222 -0.866025 0.000000
0.277778 -0.866025 0.000000
0.333333 -0.866025 0.000000
0.388889 -0.866025 0.000000
0.444444 -0.866025 0.000000
-0.472222 -0.866025 0.000000
-0.416667 -0.866025 0.000000
-0.361111 -0.866025 0.000000
-0.305556 -0.866025 0.000000
-0.250000 -0.866025 0.000000
-0.194444 -0.866025 0.000000
-0.138889 -0.866025 0.000000
-0.083333 -0.866025 0.000000
-0.027778 -0.866025 0.000000
0.027778 -0.866025 0.000000
0.083333 -0.866025 0.000000
0.138889 -0.866025 0.000000
0.194444 -0.866025 0.000000
0.250000 -0.866025 0.000000
0.305556 -0.866025 0.000000
0.361111 -0.866025 0.000000
0.416667 -0.866025 0.000000
0.472222 -0.866025 0.000000
0.500000 -0.673575 0.000000
0.444444 -0.577350 0.000000
0.388889 -0.481125 0.000000
0.333333 -0.384900 0.000000
0.277778 -0.288675 0.000000
0.222222 -0.192450 0.000000
0.166667 -0.096225 0.000000
0.111111 0.000000 0.000000
0.555556 -0.577350 0.000000
0.500000 -0.481125 0.000000
0.444444 -0.384900 0.000000
0.388889 -0.288675 0.000000
0.333333 -0.192450 0.000000
0.277778 -0.096225 0.000000
0.222222 0.000000 0.000000
0.166667 0.096225 0.000000
0.611111 -0.481125 0.000000
0.555556 -0.384900 0.000000
0.500000 -0.288675 0.000000
0.444444 -0.192450 0.000000
0.388889 -0.096225 0.000000
0.333333 0.000000 0.000000
0.277778 0.096225 0.000000
0.222222 0.192450 0.000000
0.666667 -0.384900 0.000000
0.611111 -0.288675 0.000000
0.555556 -0.192450 0.000000
0.500000 -0.096225 0.000000
0.444444 0.000000 0.000000
0.388889 0.096225 0.000000
0.333333 0.192450 0.000000
0.277778 0.288675 0.000000
0.722222 -0.288675 0.000000
[...]
POINT_DATA 3025
VECTORS sol double
+0.000000 +0.000000 0
+0.000000 +0.000000 0
+0.000000 +0.000000 0
+0.000000 +0.000000 0
+0.000000 +0.000000 0
+0.000000 +0.000000 0
-0.000000 +0.000000 0
+0.000000 +0.000000 0
+0.000000 +0.000000 0
+0.000000 +0.000000 0
+0.000000 +0.000000 0
+0.000000 +0.000000 0
+0.000000 +0.000000 0
+0.000000 +0.000000 0
+0.000000 +0.000000 0
+0.000000 +0.000000 0
+0.000000 +0.000000 0
+0.000000 +0.000000 0
+0.000000 +0.000000 0
+0.000000 +0.000000 0
+0.000000 +0.000000 0
+0.000000 +0.000000 0
+0.000000 +0.000000 0
+0.000000 +0.000000 0
+0.000000 +0.000000 0
+0.000000 +0.000000 0
+0.000000 +0.000000 0
+0.000000 +0.000000 0
+0.000000 +0.000000 0
+0.000000 +0.000000 0
+0.000000 +0.000000 0
+0.000000 +0.000000 0
+0.000000 +0.000000 0
+0.000000 +0.000000 0
+0.000000 +0.000000 0
+0.000000 +0.000000 0
+0.000000 +0.000000 0
+0.000000 +0.000000 0
+0.000000 +0.000000 0
+0.000000 +0.000000 0
+0.000000 +0.000000 0
+0.000000 +0.000000 0
+0.062802 +0.051580 0
+0.173997 +0.142905 0
+0.303917 +0.249609 0
+0.436138 +0.358202 0
+0.556055 +0.456691 0
+0.651916 +0.535422 0
+0.715015 +0.587246 0
+0.740209 +0.607937 0
+0.726161 +0.596399 0
+0.675310 +0.554635 0
+0.593533 +0.487471 0
+0.489516 +0.402042 0
+0.373898 +0.307084 0
+0.258252 +0.212103 0
+0.153993 +0.126475 0
+0.071323 +0.058578 0
+0.018282 +0.015015 0
+0.022783 +0.018711 0
+0.114882 +0.094353 0
+0.237697 +0.195222 0
+0.370764 +0.304510 0
+0.498469 +0.409395 0
+0.607646 +0.499063 0
+0.687991 +0.565050 0
+0.732534 +0.601634 0
+0.738021 +0.606140 0
+0.705029 +0.579044 0
+0.637777 +0.523809 0
+0.543642 +0.446496 0
+0.432406 +0.355137 0
+0.315310 +0.258966 0
+0.203985 +0.167534 0
+0.109367 +0.089823 0
+0.040682 +0.033412 0
+0.004589 +0.003769 0
-0.018335 +0.009078 0
-0.071532 +0.035416 0
-0.154444 +0.076467 0
-0.259007 +0.128237 0
-0.374992 +0.185662 0
-0.490948 +0.243073 0
-0.595269 +0.294724 0
-0.677286 +0.335331 0
-0.728285 +0.360581 0
-0.742375 +0.367557 0
-0.717107 +0.355047 0
-0.653823 +0.323714 0
-0.557682 +0.276114 0
-0.437414 +0.216568 0
-0.304806 +0.150913 0
-0.174506 +0.086400 0
-0.062986 +0.031185 0
-0.004602 +0.002279 0
-0.040801 +0.020201 0
-0.109687 +0.054307 0
-0.204582 +0.101291 0
-0.316233 +0.156570 0
-0.433671 +0.214715 0
-0.545232 +0.269950 0
-0.639643 +0.316693 0
-0.707091 +0.350088 0
-0.740180 +0.366470 0
-0.734677 +0.363746 0
-0.690003 +0.341627 0
-0.609424 +0.301732 0
-0.499927 +0.247519 0
-0.371848 +0.184106 0
-0.238392 +0.118030 0
-0.115218 +0.057046 0
-0.022849 +0.011313 0
+0.000000 +0.000000 0
+0.000000 +0.000000 0
+0.000000 +0.000000 0
+0.000000 +0.000000 0
+0.000000 +0.000000 0
+0.000000 +0.000000 0
+0.000000 +0.000000 0
+0.000000 +0.000000 0
+0.000000 +0.000000 0
+0.000000 +0.000000 0
+0.000000 +0.000000 0
+0.000000 +0.000000 0
+0.000000 +0.000000 0
+0.000000 +0.000000 0
+0.000000 +0.000000 0
+0.000000 +0.000000 0
+0.000000 +0.000000 0
+0.000000 +0.000000 0
+0.000000 +0.000000 0
+0.000000 +0.000000 0
+0.000000 +0.000000 0
+0.000000 +0.000000 0
+0.000000 +0.000000 0
+0.000000 +0.000000 0
+0.000000 +0.000000 0
+0.000000 +0.000000 0
+0.000000 +0.000000 0
+0.000000 +0.000000 0
+0.000000 +0.000000 0
+0.000000 +0.000000 0
+0.000000 +0.000000 0
+0.000000 +0.000000 0
+0.000000 +0.000000 0
+0.000000 +0.000000 0
+0.000000 +0.000000 0
+0.000000 +0.000000 0
+0.000000 +0.000000 0
+0.000000 +0.000000 0
+0.000000 +0.000000 0
+0.000000 +0.000000 0
+0.000000 +0.000000 0
+0.000000 +0.000000 0
+0.000000 +0.000000 0
+0.000000 +0.000000 0
+0.000000 +0.000000 0
+0.000000 +0.000000 0
+0.000000 +0.000000 0
+0.000000 +0.000000 0
+0.000000 +0.000000 0
+0.000000 +0.000000 0
+0.000000 +0.000000 0
+0.000000 +0.000000 0
+0.000000 +0.000000 0
+0.000000 +0.000000 0
+0.000000 +0.000000 0
+0.000000 +0.000000 0
+0.000000 +0.000000 0
+0.000000 +0.000000 0
+0.000000 +0.000000 0
+0.000000 +0.000000 0
+0.000000 +0.000000 0
+0.000000 +0.000000 0
+0.000000 +0.000000 0
+0.000000 +0.000000 0
+0.000000 +0.000000 0
+0.000000 +0.000000 0
+0.000000 +0.000000 0
+0.000000 +0.000000 0
+0.000000 +0.000000 0
+0.000000 +0.000000 0
+0.000000 +0.000000 0
+0.000000 +0.000000 0
+0.000000 +0.000000 0
+0.000000 +0.000000 0
+0.000000 +0.000000 0
+0.000000 +0.000000 0
+0.000000 +0.000000 0
+0.000000 +0.000000 0
+0.000000 +0.000000 0
+0.000000 +0.000000 0
+0.000000 +0.000000 0
+0.000000 +0.000000 0
+0.000000 +0.000000 0
+0.000000 +0.000000 0
+0.000000 +0.000000 0
+0.000000 +0.000000 0
+0.000000 +0.000000 0
+0.000000 +0.000000 0
+0.000000 +0.000000 0
+0.000000 +0.000000 0
+0.000000 +0.000000 0
+0.000000 +0.000000 0
+0.000000 +0.000000 0
+0.000000 +0.000000 0
+0.000000 +0.000000 0
+0.000000 +0.000000 0
+0.000000 +0.000000 0
+0.000000 +0.000000 0
+0.000000 +0.000000 0
+0.000000 +0.000000 0
+0.000000 +0.000000 0
+0.000000 +0.000000 0
+0.000000 +0.000000 0
+0.000000 +0.000000 0
+0.000000 +0.000000 0
+0.000184 -0.082764 0
+0.000509 -0.229304 0
+0.000889 -0.400521 0
+0.001276 -0.574771 0
+0.001627 -0.732805 0
+0.001907 -0.859136 0
+0.002092 -0.942292 0
+0.002165 -0.975494 0
+0.002124 -0.956980 0
+0.001976 -0.889966 0
+0.001736 -0.782195 0
+0.001432 -0.645115 0
+0.001094 -0.492747 0
+0.000755 -0.340340 0
+0.000450 -0.202942 0
+0.000209 -0.093994 0
+0.000053 -0.024093 0
+0.000067 -0.030024 0
+0.000336 -0.151399 0
+0.000695 -0.313252 0
+0.001085 -0.488616 0
+0.001458 -0.656914 0
+0.001778 -0.800794 0
+0.002013 -0.906677 0
+0.002143 -0.965379 0
+0.002159 -0.972611 0
+0.002062 -0.929132 0
+0.001866 -0.840503 0
+0.001590 -0.716445 0
+0.001265 -0.569852 0
+0.000922 -0.415536 0
+0.000597 -0.268825 0
+0.000320 -0.144130 0
+0.000119 -0.053613 0
+0.000013 -0.006048 0
+0.000000 +0.000000 0
+0.000000 +0.000000 0
+0.000000 +0.000000 0
+0.000000 +0.000000 0
+0.000000 +0.000000 0
+0.000000 +0.000000 0
+0.000000 +0.000000 0
+0.000000 +0.000000 0
+0.000000 +0.000000 0
+0.000000 +0.000000 0
+0.000000 +0.000000 0
+0.000000 +0.000000 0
+0.000000 +0.000000 0
+0.000000 +0.000000 0
+0.000000 +0.000000 0
+0.000000 +0.000000 0
+0.000000 +0.000000 0
+0.000000 +0.000000 0
+0.000000 +0.000000 0
+0.000000 +0.000000 0
+0.000000 +0.000000 0
+0.000000 +0.000000 0
+0.000000 +0.000000 0
+0.000000 +0.000000 0
+0.000000 +0.000000 0
+0.000000 +0.000000 0
+0.000000 +0.000000 0
+0.000000 +0.000000 0
+0.000000 +0.000000 0
+0.000000 +0.000000 0
+0.000000 +0.000000 0
+0.000000 +0.000000 0
+0.000000 +0.000000 0
+0.000000 +0.000000 0
+0.000000 +0.000000 0
+0.000000 +0.000000 0
+0.000000 +0.000000 0
+0.000000 +0.000000 0
+0.000000 +0.000000 0
+0.000000 +0.000000 0
+0.000000 +0.000000 0
+0.000000 +0.000000 0
+0.000000 +0.000000 0
+0.000000 +0.000000 0
+0.000000 +0.000000 0
+0.000000 +0.000000 0
+0.000000 +0.000000 0
+0.000000 +0.000000 0
+0.000000 +0.000000 0
+0.000000 +0.000000 0
+0.000000 +0.000000 0
+0.000000 +0.000000 0
+0.000000 +0.000000 0
+0.000000 +0.000000 0
+0.000000 +0.000000 0
+0.000000 +0.000000 0
+0.000000 +0.000000 0
+0.000000 +0.000000 0
+0.000000 +0.000000 0
+0.000000 +0.000000 0
+0.000000 +0.000000 0
+0.000000 +0.000000 0
+0.000000 +0.000000 0
+0.000000 +0.000000 0
+0.000000 +0.000000 0
+0.000000 +0.000000 0
+0.000000 +0.000000 0
+0.000000 +0.000000 0
+0.000000 +0.000000 0
+0.000000 +0.000000 0
-0.282175 +0.076526 0
-0.576544 +0.114769 0
-0.777859 +0.095388 0
-0.820836 +0.023691 0
-0.698951 -0.071544 0
-0.462704 -0.147757 0
-0.199114 -0.163523 0
+0.000209 -0.093956 0
-0.338847 -0.003577 0
-0.631204 -0.087259 0
-0.786480 -0.226025 0
-0.761017 -0.372415 0
-0.571321 -0.469230 0
-0.285755 -0.466946 0
+0.000755 -0.340296 0
+0.199697 -0.098861 0
-0.344459 -0.123427 0
-0.593075 -0.329549 0
-0.673950 -0.553531 0
-0.568555 -0.719584 0
-0.316109 -0.762132 0
+0.001432 -0.645078 0
+0.287622 -0.373981 0
+0.463027 +0.002337 0
-0.301723 -0.247823 0
-0.473031 -0.546080 0
-0.466551 -0.803116 0
-0.289167 -0.935351 0
+0.001975 -0.889944 0
+0.319264 -0.659115 0
+0.572992 -0.283696 0
+0.698766 +0.155077 0
-0.222940 -0.342609 0
-0.302710 -0.679787 0
-0.218454 -0.913671 0
+0.002165 -0.975487 0
+0.293110 -0.840943 0
+0.571340 -0.534766 0
+0.762123 -0.125459 0
+0.820141 +0.289753 0
-0.129531 -0.381119 0
-0.128338 -0.693687 0
+0.001907 -0.859136 0
+0.222352 -0.842200 0
+0.469779 -0.651303 0
+0.675922 -0.334668 0
+0.786918 +0.029080 0
+0.776876 +0.347467 0
-0.047299 -0.347117 0
+0.001276 -0.574751 0
+0.131324 -0.651586 0
+0.305509 -0.581173 0
+0.475114 -0.392351 0
+0.594111 -0.137063 0
+0.631138 +0.117412 0
+0.575620 +0.301577 0
+0.000508 -0.229052 0
+0.048805 -0.331535 0
+0.131129 -0.338857 0
+0.224300 -0.270095 0
+0.302605 -0.149840 0
+0.344759 -0.011680 0
+0.338619 +0.106265 0
+0.281633 +0.167939 0
-0.132359 +0.041064 0
-0.235077 +0.091932 0
-0.103407 +0.042831 0
-0.434993 +0.102164 0
-0.516477 +0.181293 0
-0.377914 +0.140055 0
-0.694168 +0.112561 0
-0.728759 +0.226103 0
-0.637109 +0.211009 0
-0.821006 +0.064752 0
-0.797644 +0.208489 0
-0.783629 +0.225154 0
-0.778521 -0.023480 0
-0.706251 +0.137462 0
-0.770642 +0.178105 0
-0.590197 -0.114835 0
-0.495816 +0.044463 0
-0.611442 +0.091152 0
-0.328304 -0.165299 0
-0.247911 -0.028445 0
-0.370665 +0.002878 0
-0.086447 -0.139970 0
-0.053838 -0.044207 0
-0.138995 -0.045167 0
+0.053996 -0.026724 0
+0.000053 -0.024058 0
-0.168548 +0.008745 0
-0.316801 +0.043497 0
-0.153811 +0.029023 0
-0.497293 -0.036351 0
-0.615332 +0.022860 0
-0.475126 +0.041595 0
-0.730070 -0.152309 0
-0.797684 -0.058921 0
-0.725780 -0.011568 0
-0.796723 -0.301808 0
-0.808839 -0.174300 0
-0.825811 -0.114963 0
-0.683409 -0.430506 0
-0.653564 -0.278089 0
-0.749364 -0.230799 0
-0.434835 -0.482788 0
-0.391574 -0.321597 0
-0.530567 -0.310100 0
-0.136547 -0.419449 0
-0.114468 -0.269167 0
-0.248818 -0.308678 0
+0.115580 -0.231868 0
+0.087006 -0.111847 0
+0.000450 -0.202899 0
+0.247859 +0.051938 0
+0.139096 -0.000079 0
-0.178170 -0.048275 0
-0.348058 -0.060674 0
-0.176667 -0.017745 0
-0.486298 -0.219713 0
-0.623566 -0.207540 0
-0.500945 -0.125620 0
-0.657042 -0.444030 0
-0.744469 -0.394600 0
-0.706703 -0.299802 0
-0.643348 -0.648386 0
-0.679383 -0.557988 0
-0.734766 -0.483486 0
-0.456305 -0.759431 0
-0.456480 -0.633599 0
-0.583768 -0.610241 0
-0.159407 -0.724260 0
-0.151704 -0.576275 0
-0.308389 -0.623174 0
+0.154152 -0.526685 0
+0.138310 -0.374884 0
+0.001094 -0.492705 0
+0.392719 -0.194435 0
+0.328801 -0.058759 0
+0.250009 -0.227800 0
+0.495262 +0.205153 0
+0.370386 +0.123029 0
-0.162348 -0.112288 0
-0.328610 -0.187300 0
-0.173240 -0.080559 0
-0.407832 -0.396260 0
-0.541765 -0.444970 0
-0.454527 -0.312034 0
-0.492898 -0.685461 0
-0.579258 -0.692608 0
-0.584195 -0.575432 0
-0.396660 -0.889073 0
-0.435518 -0.847708 0
-0.528124 -0.786312 0
-0.152741 -0.936493 0
-0.159608 -0.848605 0
-0.309270 -0.869934 0
+0.163259 -0.796256 0
+0.162506 -0.672067 0
+0.001736 -0.782165 0
+0.458963 -0.485172 0
+0.436664 -0.341486 0
+0.310932 -0.522759 0
+0.654328 -0.066033 0
+0.590281 +0.076563 0
+0.531562 -0.137890 0
+0.705133 +0.366298 0
+0.610598 +0.289289 0
-0.126194 -0.165407 0
-0.265673 -0.300820 0
-0.146293 -0.141243 0
-0.283180 -0.518411 0
-0.391488 -0.626155 0
-0.349385 -0.466669 0
-0.280444 -0.814860 0
-0.343434 -0.878299 0
-0.389274 -0.767033 0
-0.121751 -0.968749 0
-0.139695 -0.978337 0
-0.257946 -0.950909 0
+0.143937 -0.932350 0
+0.156787 -0.886307 0
+0.002124 -0.956966 0
+0.438966 -0.705923 0
+0.459347 -0.610970 0
+0.312909 -0.769056 0
+0.681370 -0.337361 0
+0.684828 -0.208666 0
+0.586057 -0.420571 0
+0.809030 +0.088015 0
+0.778065 +0.228898 0
+0.749849 +0.012277 0
+0.796145 +0.466900 0
+0.769298 +0.427784 0
-0.079618 -0.192773 0
-0.176478 -0.370152 0
-0.103441 -0.183049 0
-0.146123 -0.551834 0
-0.212874 -0.703077 0
-0.213803 -0.547692 0
-0.077686 -0.798055 0
-0.100490 -0.907162 0
-0.174045 -0.825630 0
+0.104444 -0.873935 0
+0.125963 -0.928586 0
+0.002092 -0.942290 0
+0.347085 -0.766341 0
+0.400321 -0.759853 0
+0.261980 -0.866610 0
+0.581915 -0.504339 0
+0.645763 -0.439374 0
+0.531233 -0.614552 0
+0.745685 -0.152992 0
+0.797489 -0.043329 0
+0.736383 -0.244959 0
+0.797372 +0.199696 0
+0.820128 +0.330839 0
+0.825727 +0.152811 0
+0.727231 +0.462171 0
+0.782066 +0.479010 0
-0.035437 -0.184472 0
-0.085418 -0.373842 0
-0.056400 -0.193518 0
-0.034732 -0.478912 0
-0.055175 -0.650761 0
-0.084962 -0.529193 0
+0.058024 -0.632407 0
+0.081171 -0.772299 0
+0.001627 -0.732803 0
+0.215841 -0.633567 0
+0.283858 -0.723366 0
+0.177584 -0.768618 0
+0.393985 -0.498801 0
+0.495585 -0.525192 0
+0.392398 -0.640296 0
+0.543350 -0.269034 0
+0.658540 -0.230726 0
+0.586328 -0.385648 0
+0.624038 -0.005258 0
+0.730220 +0.084457 0
+0.707525 -0.070505 0
+0.614788 +0.222307 0
+0.693169 +0.337499 0
+0.725309 +0.223706 0
+0.515301 +0.348581 0
+0.635714 +0.417380 0
-0.006062 -0.132960 0
-0.017936 -0.299626 0
-0.018240 -0.164756 0
+0.019253 -0.293596 0
+0.036832 -0.467309 0
+0.000889 -0.400517 0
+0.087016 -0.345884 0
+0.148467 -0.504070 0
+0.087249 -0.501271 0
+0.177994 -0.312680 0
+0.285277 -0.426244 0
+0.216080 -0.477993 0
+0.266817 -0.214484 0
+0.409297 -0.263774 0
+0.351204 -0.353078 0
+0.329205 -0.080645 0
+0.486923 -0.061918 0
+0.455585 -0.164472 0
+0.348077 +0.052194 0
+0.497097 +0.124876 0
+0.501142 +0.036854 0
+0.316380 +0.146158 0
+0.434227 +0.243096 0
+0.474599 +0.195580 0
+0.234500 +0.168067 0
+0.377020 +0.262457 0
+0.006648 -0.130899 0
+0.000182 -0.082138 0
+0.036230 -0.172852 0
+0.018958 -0.158724 0
+0.080416 -0.166825 0
+0.057218 -0.175096 0
+0.126837 -0.124382 0
+0.104179 -0.149386 0
+0.162730 -0.059581 0
+0.146815 -0.093720 0
+0.178256 +0.009514 0
+0.173473 -0.024345 0
+0.168388 +0.063374 0
+0.176619 +0.039536 0
+0.132081 +0.083939 0
+0.153571 +0.078861 0
+0.103143 +0.076320 0
-0.047399 +0.020312 0
-0.085503 +0.039178 0
-0.063195 +0.020990 0
-0.118978 +0.043409 0
-0.205990 +0.059799 0
-0.260224 +0.086665 0
-0.166751 +0.067064 0
-0.206533 +0.091964 0
-0.306080 +0.116522 0
-0.343313 +0.149108 0
-0.359126 +0.090821 0
-0.408506 +0.124259 0
-0.508021 +0.110262 0
-0.549040 +0.151627 0
-0.448614 +0.161869 0
-0.479141 +0.203153 0
-0.579778 +0.197839 0
-0.599947 +0.248156 0
-0.639045 +0.115584 0
-0.668653 +0.165535 0
-0.740756 +0.105807 0
-0.756792 +0.164347 0
-0.687115 +0.220532 0
-0.694240 +0.279592 0
-0.761131 +0.227674 0
-0.753720 +0.294575 0
-0.804769 +0.081611 0
-0.806225 +0.148118 0
-0.826357 +0.045293 0
-0.813504 +0.118561 0
-0.795844 +0.218718 0
-0.773737 +0.291998 0
-0.789132 +0.194843 0
-0.753518 +0.272561 0
-0.804727 +0.000566 0
-0.779119 +0.078885 0
-0.742958 -0.047748 0
-0.707322 +0.033502 0
-0.742763 +0.158813 0
-0.696083 +0.238652 0
-0.662111 +0.114703 0
-0.607861 +0.194096 0
-0.647617 -0.094147 0
-0.605636 -0.012380 0
-0.528076 -0.132934 0
-0.484091 -0.053235 0
-0.555566 +0.067513 0
-0.498009 +0.143774 0
-0.433701 +0.022693 0
-0.377516 +0.093154 0
-0.395606 -0.158740 0
-0.354264 -0.083732 0
-0.262322 -0.167035 0
-0.228192 -0.099247 0
-0.308263 -0.014372 0
-0.258159 +0.047771 0
-0.191069 -0.038872 0
-0.151398 +0.012705 0
-0.140071 -0.154574 0
-0.117267 -0.096321 0
-0.039371 -0.119758 0
-0.031213 -0.073028 0
-0.092923 -0.047051 0
-0.067322 -0.007909 0
-0.022639 -0.036579 0
-0.013725 -0.011279 0
+0.031515 -0.062858 0
+0.022785 -0.029214 0
+0.067309 +0.013920 0
+0.013765 -0.006822 0
-0.074940 +0.016202 0
-0.143961 +0.036223 0
-0.083215 +0.007006 0
-0.162011 +0.019814 0
-0.254339 +0.005238 0
-0.329421 +0.021495 0
-0.235017 +0.038239 0
-0.301050 +0.062021 0
-0.397417 +0.044677 0
-0.457253 +0.074426 0
-0.420386 -0.017492 0
-0.488510 +0.004452 0
-0.568040 -0.059731 0
-0.626204 -0.030391 0
-0.548278 +0.034319 0
-0.598726 +0.071587 0
-0.674903 +0.007490 0
-0.713311 +0.053186 0
-0.685567 -0.118312 0
-0.731407 -0.080449 0
-0.763911 -0.188463 0
-0.796003 -0.141563 0
-0.766969 -0.033846 0
-0.791590 +0.020547 0
-0.817400 -0.086158 0
-0.827622 -0.023426 0
-0.797458 -0.264094 0
-0.815503 -0.208260 0
-0.784453 -0.338219 0
-0.789350 -0.274149 0
-0.822895 -0.144583 0
-0.819343 -0.074461 0
-0.784112 -0.203301 0
-0.768630 -0.127265 0
-0.727066 -0.403475 0
-0.720865 -0.332411 0
-0.631103 -0.452691 0
-0.616858 -0.376348 0
-0.705500 -0.255991 0
-0.681018 -0.175961 0
-0.594808 -0.296365 0
-0.565116 -0.214596 0
-0.505424 -0.479474 0
-0.486951 -0.399942 0
-0.361097 -0.478750 0
-0.342668 -0.398385 0
-0.462323 -0.318705 0
-0.431761 -0.237671 0
-0.319896 -0.318386 0
-0.293007 -0.240655 0
-0.210396 -0.447228 0
-0.196384 -0.368536 0
-0.065704 -0.383757 0
-0.060224 -0.309265 0
-0.179869 -0.292325 0
-0.161017 -0.220428 0
-0.053966 -0.239325 0
-0.046979 -0.175639 0
+0.061554 -0.289520 0
+0.054989 -0.221659 0
+0.161879 -0.168075 0
+0.140656 -0.109058 0
+0.047725 -0.160284 0
+0.039874 -0.106909 0
+0.117610 -0.058239 0
+0.093065 -0.016895 0
+0.228468 -0.025206 0
+0.191104 +0.023092 0
+0.257761 +0.131421 0
+0.151233 +0.061772 0
-0.088146 -0.005579 0
-0.173441 -0.003831 0
-0.089743 -0.020477 0
-0.178245 -0.032621 0
-0.263624 -0.082784 0
-0.347846 -0.091606 0
-0.263873 -0.036194 0
-0.345072 -0.031118 0
-0.427604 -0.090651 0
-0.501448 -0.079949 0
-0.419163 -0.169348 0
-0.495868 -0.172459 0
-0.544638 -0.273456 0
-0.611093 -0.268842 0
-0.566692 -0.164823 0
-0.630323 -0.146635 0
-0.670530 -0.252832 0
-0.721808 -0.225827 0
-0.630772 -0.386793 0
-0.685016 -0.372929 0
-0.671506 -0.500011 0
-0.712558 -0.475933 0
-0.731488 -0.347396 0
-0.769240 -0.310827 0
-0.745537 -0.440315 0
-0.769704 -0.394039 0
-0.664475 -0.603378 0
-0.692445 -0.568712 0
-0.611137 -0.687469 0
-0.627241 -0.642436 0
-0.712532 -0.523051 0
-0.724205 -0.467523 0
-0.636142 -0.587355 0
-0.637500 -0.523588 0
-0.516581 -0.743852 0
-0.523055 -0.689238 0
-0.389024 -0.765716 0
-0.388949 -0.702821 0
-0.523454 -0.625898 0
-0.517599 -0.555400 0
-0.384296 -0.632850 0
-0.375001 -0.557541 0
-0.239062 -0.748399 0
-0.236110 -0.678966 0
-0.078726 -0.689789 0
-0.076861 -0.615918 0
-0.230338 -0.604376 0
-0.221743 -0.526487 0
-0.074060 -0.539005 0
-0.070325 -0.460970 0
+0.079539 -0.590560 0
+0.076399 -0.514610 0
+0.223920 -0.454229 0
+0.212230 -0.378705 0
+0.072321 -0.437842 0
+0.067360 -0.362182 0
+0.197878 -0.304611 0
+0.181036 -0.233809 0
+0.344189 -0.287021 0
+0.321079 -0.214461 0
+0.432505 -0.097543 0
+0.396026 -0.030388 0
+0.293864 -0.145502 0
+0.262874 -0.081882 0
+0.354381 +0.031165 0
+0.308105 +0.085564 0
+0.483979 +0.103724 0
+0.433289 +0.163263 0
+0.497012 +0.305103 0
+0.376831 +0.215461 0
-0.088070 -0.036551 0
-0.176495 -0.064319 0
-0.083330 -0.052638 0
-0.168507 -0.096613 0
-0.235613 -0.177745 0
-0.316455 -0.218237 0
-0.253935 -0.131107 0
-0.338015 -0.155490 0
-0.395901 -0.247987 0
-0.472450 -0.266485 0
-0.359494 -0.321122 0
-0.432881 -0.355524 0
-0.445914 -0.471734 0
-0.509326 -0.497757 0
-0.503454 -0.378123 0
-0.569852 -0.388575 0
-0.568838 -0.511188 0
-0.623268 -0.511894 0
-0.488781 -0.617804 0
-0.540510 -0.633601 0
-0.485425 -0.747674 0
-0.524720 -0.751913 0
-0.587671 -0.636343 0
-0.629291 -0.626138 0
-0.559258 -0.742994 0
-0.588288 -0.721293 0
-0.436757 -0.850622 0
-0.463894 -0.842522 0
-0.347134 -0.917595 0
-0.363397 -0.896937 0
-0.486588 -0.821544 0
-0.504302 -0.788344 0
-0.376012 -0.864072 0
-0.384643 -0.819934 0
-0.223946 -0.941815 0
-0.231514 -0.908934 0
-0.076952 -0.919241 0
-0.078719 -0.875002 0
-0.236660 -0.864900 0
-0.239215 -0.810912 0
-0.079632 -0.821025 0
-0.079641 -0.758746 0
+0.082545 -0.848855 0
+0.083219 -0.794621 0
+0.242642 -0.732786 0
+0.242211 -0.670367 0
+0.082951 -0.732384 0
+0.081731 -0.663773 0
+0.238954 -0.601941 0
+0.232854 -0.529276 0
+0.391788 -0.576235 0
+0.386828 -0.507823 0
+0.519691 -0.387218 0
+0.507188 -0.315293 0
+0.377206 -0.435581 0
+0.362962 -0.361353 0
+0.488375 -0.241807 0
+0.463404 -0.168612 0
+0.618084 -0.176120 0
+0.595696 -0.103341 0
+0.681309 +0.044921 0
+0.647569 +0.115849 0
+0.565661 -0.031256 0
+0.528286 +0.038341 0
+0.605255 +0.183949 0
+0.554866 +0.247554 0
+0.706665 +0.262761 0
+0.661125 +0.329247 0
+0.694523 +0.464120 0
+0.606562 +0.390998 0
-0.075883 -0.067605 0
-0.154916 -0.127225 0
-0.066252 -0.080411 0
-0.136683 -0.154024 0
-0.178763 -0.253343 0
-0.244979 -0.323316 0
-0.209965 -0.219458 0
-0.284713 -0.275496 0
-0.312442 -0.383743 0
-0.379858 -0.433512 0
-0.257969 -0.431514 0
-0.316989 -0.495136 0
-0.298187 -0.601687 0
-0.347638 -0.656564 0
-0.375897 -0.547992 0
-0.433544 -0.589119 0