# vtk DataFile Version 2.0
MyTitle
ASCII
DATASET UNSTRUCTURED_GRID
POINTS 3025 double
1.000000 0.000000 0.000000
0.500000 0.866025 0.000000
0.500000 -0.866025 0.000000
-1.000000 0.000000 0.000000
-0.500000 -0.866025 0.000000
-0.500000 0.866025 0.000000
0.000000 0.000000 0.000000
0.972222 0.048113 0.000000
0.944444 0.096225 0.000000
0.916667 0.144338 0.000000
0.888889 0.192450 0.000000
0.861111 0.240563 0.000000
0.833333 0.288675 0.000000
0.805556 0.336788 0.000000
0.777778 0.384900 0.000000
0.750000 0.433013 0.000000
0.722222 0.481125 0.000000
0.694444 0.529238 0.000000
0.666667 0.577350 0.000000
0.638889 0.625463 0.000000
0.611111 0.673575 0.000000
0.583333 0.721688 0.000000
0.555556 0.769800 0.000000
0.527778 0.817913 0.000000
0.986111 0.024056 0.000000
0.958333 0.072169 0.000000
0.930556 0.120281 0.000000
0.902778 0.168394 0.000000
0.875000 0.216506 0.000000
0.847222 0.264619 0.000000
0.819444 0.312731 0.000000
0.791667 0.360844 0.000000
0.763889 0.408956 0.000000
0.736111 0.457069 0.000000
0.708333 0.505181 0.000000
0.680556 0.553294 0.000000
0.652778 0.601407 0.000000
0.625000 0.649519 0.000000
0.597222 0.697632 0.000000
0.569444 0.745744 0.000000
0.541667 0.793857 0.000000
0.513889 0.841969 0.000000
0.472222 0.817913 0.000000
0.444444 0.769800 0.000000
0.416667 0.721688 0.000000
0.388889 0.673575 0.000000
0.361111 0.625463 0.000000
0.333333 0.577350 0.000000
0.305556 0.529238 0.000000
0.277778 0.481125 0.000000
0.250000 0.433013 0.000000
0.222222 0.384900 0.000000
0.194444 0.336788 0.000000
0.166667 0.288675 0.000000
0.138889 0.240563 0.000000
0.111111 0.192450 0.000000
0.083333 0.144338 0.000000
0.055556 0.096225 0.000000
0.027778 0.048113 0.000000
0.486111 0.841969 0.000000
0.458333 0.793857 0.000000
0.430556 0.745744 0.000000
0.402778 0.697632 0.000000
0.375000 0.649519 0.000000
0.347222 0.601407 0.000000
0.319444 0.553294 0.000000
0.291667 0.505181 0.000000
0.263889 0.457069 0.000000
0.236111 0.408956 0.000000
0.208333 0.360844 0.000000
0.180556 0.312731 0.000000
0.152778 0.264619 0.000000
0.125000 0.216506 0.000000
0.097222 0.168394 0.000000
0.069444 0.120281 0.000000
0.041667 0.072169 0.000000
0.013889 0.024056 0.000000
0.027778 -0.048113 0.000000
0.055556 -0.096225 0.000000
0.083333 -0.144338 0.000000
0.111111 -0.192450 0.000000
0.138889 -0.240563 0.000000
0.166667 -0.288675 0.000000
0.194444 -0.336788 0.000000
0.222222 -0.384900 0.000000
0.250000 -0.433013 0.000000
0.277778 -0.481125 0.000000
0.305556 -0.529238 0.000000
0.333333 -0.577350 0.000000
0.361111 -0.625463 0.000000
0.388889 -0.673575 0.000000
0.416667 -0.721688 0.000000
0.444444 -0.769800 0.000000
0.472222 -0.817913 0.000000
0.013889 -0.024056 0.000000
0.041667 -0.072169 0.000000
0.069444 -0.120281 0.000000
0.097222 -0.168394 0.000000
0.125000 -0.216506 0.000000
0.152778 -0.264619 0.000000
0.180556 -0.312731 0.000000
0.208333 -0.360844 0.000000
0.236111 -0.408956 0.000000
0.263889 -0.457069 0.000000
0.291667 -0.505181 0.000000
0.319444 -0.553294 0.000000
0.347222 -0.601407 0.000000
0.375000 -0.649519 0.000000
0.402778 -0.697632 0.000000
0.430556 -0.745744 0.000000
0.458333 -0.793857 0.000000
0.486111 -0.841969 0.000000
0.527778 -0.817913 0.000000
0.555556 -0.769800 0.000000
0.583333 -0.721688 0.000000
0.611111 -0.673575 0.000000
0.638889 -0.625463 0.000000
0.666667 -0.577350 0.000000
0.694444 -0.529238 0.000000
0.722222 -0.481125 0.000000
0.750000 -0.433013 0.000000
0.777778 -0.384900 0.000000
0.805556 -0.336788 0.000000
0.833333 -0.288675 0.000000
0.861111 -0.240563 0.000000
0.888889 -0.192450 0.000000
0.916667 -0.144338 0.000000
0.944444 -0.096225 0.000000
0.972222 -0.048113 0.000000
0.513889 -0.841969 0.000000
0.541667 -0.793857 0.000000
0.569444 -0.745744 0.000000
0.597222 -0.697632 0.000000
0.625000 -0.649519 0.000000
0.652778 -0.601407 0.000000
0.680556 -0.553294 0.000000
0.708333 -0.505181 0.000000
0.736111 -0.457069 0.000000
0.763889 -0.408956 0.000000
0.791667 -0.360844 0.000000
0.819444 -0.312731 0.000000
0.847222 -0.264619 0.000000
0.875000 -0.216506 0.000000
0.902778 -0.168394 0.000000
0.930556 -0.120281 0.000000
0.958333 -0.072169 0.000000
0.986111 -0.024056 0.000000
0.444444 0.866025 0.000000
0.388889 0.866025 0.000000
0.333333 0.866025 0.000000
0.277778 0.866025 0.000000
0.222222 0.866025 0.000000
0.166667 0.866025 0.000000
0.111111 0.866025 0.000000
0.055556 0.866025 0.000000
0.000000 0.866025 0.000000
-0.055556 0.866025 0.000000
-0.111111 0.866025 0.000000
-0.166667 0.866025 0.000000
-0.222222 0.866025 0.000000
-0.277778 0.866025 0.000000
-0.333333 0.866025 0.000000
-0.388889 0.866025 0.000000
-0.444444 0.866025 0.000000
0.472222 0.866025 0.000000
0.416667 0.866025 0.000000
0.361111 0.866025 0.000000
0.305556 0.866025 0.000000
0.250000 0.866025 0.000000
0.194444 0.866025 0.000000
0.138889 0.866025 0.000000
0.083333 0.866025 0.000000
0.027778 0.866025 0.000000
-0.027778 0.866025 0.000000
-0.083333 0.866025 0.000000
-0.138889 0.866025 0.000000
-0.194444 0.866025 0.000000
-0.250000 0.866025 0.000000
-0.305556 0.866025 0.000000
-0.361111 0.866025 0.000000
-0.416667 0.866025 0.000000
-0.472222 0.866025 0.000000
-0.527778 0.817913 0.000000
-0.555556 0.769800 0.000000
-0.583333 0.721688 0.000000
-0.611111 0.673575 0.000000
-0.638889 0.625463 0.000000
-0.666667 0.577350 0.000000
-0.694444 0.529238 0.000000
-0.722222 0.481125 0.000000
-0.750000 0.433013 0.000000
-0.777778 0.384900 0.000000
-0.805556 0.336788 0.000000
-0.833333 0.288675 0.000000
-0.861111 0.240563 0.000000
-0.888889 0.192450 0.000000
-0.916667 0.144338 0.000000
-0.944444 0.096225 0.000000
-0.972222 0.048113 0.000000
-0.513889 0.841969 0.000000
-0.541667 0.793857 0.000000
-0.569444 0.745744 0.000000
-0.597222 0.697632 0.000000
-0.625000 0.649519 0.000000
-0.652778 0.601407 0.000000
-0.680556 0.553294 0.000000
-0.708333 0.505181 0.000000
-0.736111 0.457069 0.000000
-0.763889 0.408956 0.000000
-0.791667 0.360844 0.000000
-0.819444 0.312731 0.000000
-0.847222 0.264619 0.000000
-0.875000 0.216506 0.000000
-0.902778 0.168394 0.000000
-0.930556 0.120281 0.000000
-0.958333 0.072169 0.000000
-0.986111 0.024056 0.000000
-0.944444 0.000000 0.000000
-0.888889 0.000000 0.000000
-0.833333 0.000000 0.000000
-0.777778 0.000000 0.000000
-0.722222 0.000000 0.000000
-0.666667 0.000000 0.000000
-0.611111 0.000000 0.000000
-0.555556 0.000000 0.000000
-0.500000 0.000000 0.000000
-0.444444 0.000000 0.000000
-0.388889 0.000000 0.000000
-0.333333 0.000000 0.000000
-0.277778 0.000000 0.000000
-0.222222 0.000000 0.000000
-0.166667 0.000000 0.000000
-0.111111 0.000000 0.000000
-0.055556 0.000000 0.000000
-0.972222 0.000000 0.000000
-0.916667 0.000000 0.000000
-0.861111 0.000000 0.000000
-0.805556 0.000000 0.000000
-0.750000 0.000000 0.000000
-0.694444 0.000000 0.000000
-0.638889 0.000000 0.000000
-0.583333 0.000000 0.000000
-0.527778 0.000000 0.000000
-0.472222 0.000000 0.000000
-0.416667 0.000000 0.000000
-0.361111 0.000000 0.000000
-0.305556 0.000000 0.000000
-0.250000 0.000000 0.000000
-0.194444 0.000000 0.000000
-0.138889 0.000000 0.000000
-0.083333 0.000000 0.000000
-0.027778 0.000000 0.000000
-0.972222 -0.048113 0.000000
-0.944444 -0.096225 0.000000
-0.916667 -0.144338 0.000000
-0.888889 -0.192450 0.000000
-0.861111 -0.240563 0.000000
-0.833333 -0.288675 0.000000
-0.805556 -0.336788 0.000000
-0.777778 -0.384900 0.000000
-0.750000 -0.433013 0.000000
-0.722222 -0.481125 0.000000
-0.694444 -0.529238 0.000000
-0.666667 -0.577350 0.000000
-0.638889 -0.625463 0.000000
-0.611111 -0.673575 0.000000
-0.583333 -0.721688 0.000000
-0.555556 -0.769800 0.000000
-0.527778 -0.817913 0.000000
-0.986111 -0.024056 0.000000
-0.958333 -0.072169 0.000000
-0.930556 -0.120281 0.000000
-0.902778 -0.168394 0.000000
-0.875000 -0.216506 0.000000
-0.847222 -0.264619 0.000000
-0.819444 -0.312731 0.000000
-0.791667 -0.360844 0.000000
-0.763889 -0.408956 0.000000
-0.736111 -0.457069 0.000000
-0.708333 -0.505181 0.000000
-0.680556 -0.553294 0.000000
-0.652778 -0.601407 0.000000
-0.625000 -0.649519 0.000000
-0.597222 -0.697632 0.000000
-0.569444 -0.745744 0.000000
-0.541667 -0.793857 0.000000
-0.513889 -0.841969 0.000000
-0.444444 -0.866025 0.000000
-0.388889 -0.866025 0.000000
-0.333333 -0.866025 0.000000
-0.277778 -0.866025 0.000000
-0.222222 -0.866025 0.000000
-0.166667 -0.866025 0.000000
-0.111111 -0.866025 0.000000
-0.055556 -0.866025 0.000000
-0.000000 -0.866025 0.000000
0.055556 -0.866025 0.000000
0.111111 -0.866025 0.000000
0.166667 -0.866025 0.000000
0.222222 -0.866025 0.000000
0.277778 -0.866025 0.000000
0.333333 -0.866025 0.000000
0.388889 -0.866025 0.000000
0.444444 -0.866025 0.000000
-0.472222 -0.866025 0.000000
-0.416667 -0.866025 0.000000
-0.361111 -0.866025 0.000000
-0.305556 -0.866025 0.000000
-0.250000 -0.866025 0.000000
-0.194444 -0.866025 0.000000
-0.138889 -0.866025 0.000000
-0.083333 -0.866025 0.000000
-0.027778 -0.866025 0.000000
0.027778 -0.866025 0.000000
0.083333 -0.866025 0.000000
0.138889 -0.866025 0.000000
0.194444 -0.866025 0.000000
0.250000 -0.866025 0.000000
0.305556 -0.866025 0.000000
0.361111 -0.866025 0.000000
0.416667 -0.866025 0.000000
0.472222 -0.866025 0.000000
0.500000 -0.673575 0.000000
0.444444 -0.577350 0.000000
0.388889 -0.481125 0.000000
0.333333 -0.384900 0.000000
0.277778 -0.288675 0.000000
0.222222 -0.192450 0.000000
0.166667 -0.096225 0.000000
0.111111 0.000000 0.000000
0.555556 -0.577350 0.000000
0.500000 -0.481125 0.000000
0.444444 -0.384900 0.000000
0.388889 -0.288675 0.000000
0.333333 -0.192450 0.000000
0.277778 -0.096225 0.000000
0.222222 0.000000 0.000000
0.166667 0.096225 0.000000
0.611111 -0.481125 0.000000
0.555556 -0.384900 0.000000
0.500000 -0.288675 0.000000
0.444444 -0.192450 0.000000
0.388889 -0.096225 0.000000
0.333333 0.000000 0.000000
0.277778 0.096225 0.000000
0.222222 0.192450 0.000000
0.666667 -0.384900 0.000000
0.611111 -0.288675 0.000000
0.555556 -0.192450 0.000000
0.500000 -0.096225 0.000000
0.444444 0.000000 0.000000
0.388889 0.096225 0.000000
0.333333 0.192450 0.000000
0.277778 0.288675 0.000000
0.722222 -0.288675 0.000000
[...]
POINT_DATA 3025
VECTORS sol double
+0.000000 +0.000000 0
+0.000000 +0.000000 0
+0.000000 +0.000000 0
+0.000000 +0.000000 0
+0.000000 +0.000000 0
+0.000000 +0.000000 0
-0.000000 -0.000000 0
+0.000000 +0.000000 0
+0.000000 +0.000000 0
+0.000000 +0.000000 0
+0.000000 +0.000000 0
+0.000000 +0.000000 0
+0.000000 +0.000000 0
+0.000000 +0.000000 0
+0.000000 +0.000000 0
+0.000000 +0.000000 0
+0.000000 +0.000000 0
+0.000000 +0.000000 0
+0.000000 +0.000000 0
+0.000000 +0.000000 0
+0.000000 +0.000000 0
+0.000000 +0.000000 0
+0.000000 +0.000000 0
+0.000000 +0.000000 0
+0.000000 +0.000000 0
+0.000000 +0.000000 0
+0.000000 +0.000000 0
+0.000000 +0.000000 0
+0.000000 +0.000000 0
+0.000000 +0.000000 0
+0.000000 +0.000000 0
+0.000000 +0.000000 0
+0.000000 +0.000000 0
+0.000000 +0.000000 0
+0.000000 +0.000000 0
+0.000000 +0.000000 0
+0.000000 +0.000000 0
+0.000000 +0.000000 0
+0.000000 +0.000000 0
+0.000000 +0.000000 0
+0.000000 +0.000000 0
+0.000000 +0.000000 0
-0.051301 -0.029132 0
-0.143970 -0.081756 0
-0.256899 -0.145886 0
-0.379858 -0.215710 0
-0.503448 -0.285893 0
-0.619357 -0.351715 0
-0.720106 -0.408926 0
-0.799235 -0.453862 0
-0.851509 -0.483546 0
-0.873099 -0.495806 0
-0.861731 -0.489351 0
-0.816768 -0.463818 0
-0.739224 -0.419783 0
-0.631699 -0.358723 0
-0.498244 -0.282938 0
-0.344164 -0.195441 0
-0.175759 -0.099809 0
-0.018547 -0.010532 0
-0.094340 -0.053573 0
-0.198570 -0.112762 0
-0.317772 -0.180453 0
-0.442135 -0.251075 0
-0.562876 -0.319641 0
-0.672079 -0.381653 0
-0.762751 -0.433143 0
-0.829019 -0.470775 0
-0.866330 -0.491963 0
-0.871619 -0.494966 0
-0.843424 -0.478955 0
-0.781937 -0.444039 0
-0.688978 -0.391250 0
-0.567892 -0.322489 0
-0.423389 -0.240430 0
-0.261307 -0.148388 0
-0.088318 -0.050153 0
+0.008913 +0.164441 0
+0.017454 +0.322001 0
+0.025268 +0.466158 0
+0.032036 +0.591018 0
+0.037489 +0.691620 0
+0.041421 +0.764170 0
+0.043701 +0.806237 0
+0.044278 +0.816872 0
+0.043183 +0.796673 0
+0.040532 +0.747766 0
+0.036519 +0.673732 0
+0.031410 +0.579472 0
+0.025531 +0.471026 0
+0.019264 +0.355396 0
+0.013028 +0.240356 0
+0.007301 +0.134699 0
+0.002602 +0.047997 0
+0.004479 +0.082631 0
+0.013252 +0.244479 0
+0.021471 +0.396124 0
+0.028800 +0.531321 0
+0.034940 +0.644609 0
+0.039655 +0.731582 0
+0.042773 +0.789109 0
+0.044203 +0.815488 0
+0.043934 +0.810540 0
+0.042042 +0.775631 0
+0.038682 +0.713631 0
+0.034083 +0.628798 0
+0.028545 +0.526628 0
+0.022422 +0.413662 0
+0.016115 +0.297308 0
+0.010070 +0.185782 0
+0.004784 +0.088265 0
+0.000941 +0.017353 0
+0.000000 +0.000000 0
+0.000000 +0.000000 0
+0.000000 +0.000000 0
+0.000000 +0.000000 0
+0.000000 +0.000000 0
+0.000000 +0.000000 0
+0.000000 +0.000000 0
+0.000000 +0.000000 0
+0.000000 +0.000000 0
+0.000000 +0.000000 0
+0.000000 +0.000000 0
+0.000000 +0.000000 0
+0.000000 +0.000000 0
+0.000000 +0.000000 0
+0.000000 +0.000000 0
+0.000000 +0.000000 0
+0.000000 +0.000000 0
+0.000000 +0.000000 0
+0.000000 +0.000000 0
+0.000000 +0.000000 0
+0.000000 +0.000000 0
+0.000000 +0.000000 0
+0.000000 +0.000000 0
+0.000000 +0.000000 0
+0.000000 +0.000000 0
+0.000000 +0.000000 0
+0.000000 +0.000000 0
+0.000000 +0.000000 0
+0.000000 +0.000000 0
+0.000000 +0.000000 0
+0.000000 +0.000000 0
+0.000000 +0.000000 0
+0.000000 +0.000000 0
+0.000000 +0.000000 0
+0.000000 +0.000000 0
+0.000000 +0.000000 0
+0.000000 +0.000000 0
+0.000000 +0.000000 0
+0.000000 +0.000000 0
+0.000000 +0.000000 0
+0.000000 +0.000000 0
+0.000000 +0.000000 0
+0.000000 +0.000000 0
+0.000000 +0.000000 0
+0.000000 +0.000000 0
+0.000000 +0.000000 0
+0.000000 +0.000000 0
+0.000000 +0.000000 0
+0.000000 +0.000000 0
+0.000000 +0.000000 0
+0.000000 +0.000000 0
+0.000000 +0.000000 0
+0.000000 +0.000000 0
+0.000000 +0.000000 0
+0.000000 +0.000000 0
+0.000000 +0.000000 0
+0.000000 +0.000000 0
+0.000000 +0.000000 0
+0.000000 +0.000000 0
+0.000000 +0.000000 0
+0.000000 +0.000000 0
+0.000000 +0.000000 0
+0.000000 +0.000000 0
+0.000000 +0.000000 0
+0.000000 +0.000000 0
+0.000000 +0.000000 0
+0.000000 +0.000000 0
+0.000000 +0.000000 0
+0.000000 +0.000000 0
+0.000000 +0.000000 0
+0.000000 +0.000000 0
+0.000000 +0.000000 0
+0.000000 +0.000000 0
+0.000000 +0.000000 0
+0.000000 +0.000000 0
+0.000000 +0.000000 0
+0.000000 +0.000000 0
+0.000000 +0.000000 0
+0.000000 +0.000000 0
+0.000000 +0.000000 0
+0.000000 +0.000000 0
+0.000000 +0.000000 0
+0.000000 +0.000000 0
+0.000000 +0.000000 0
+0.000000 +0.000000 0
+0.000000 +0.000000 0
+0.000000 +0.000000 0
+0.000000 +0.000000 0
+0.000000 +0.000000 0
+0.000000 +0.000000 0
+0.000000 +0.000000 0
+0.000000 +0.000000 0
+0.000000 +0.000000 0
+0.000000 +0.000000 0
+0.000000 +0.000000 0
+0.000000 +0.000000 0
+0.000000 +0.000000 0
+0.000000 +0.000000 0
+0.000000 +0.000000 0
+0.000000 +0.000000 0
+0.000000 +0.000000 0
+0.000000 +0.000000 0
+0.000000 +0.000000 0
+0.000000 +0.000000 0
+0.000000 +0.000000 0
+0.048699 -0.018865 0
+0.136669 -0.052942 0
+0.243871 -0.094470 0
+0.360594 -0.139686 0
+0.477916 -0.185134 0
+0.587948 -0.227757 0
+0.683587 -0.264806 0
+0.758704 -0.293904 0
+0.808326 -0.313127 0
+0.828821 -0.321066 0
+0.818029 -0.316886 0
+0.775347 -0.300352 0
+0.701736 -0.271836 0
+0.599663 -0.232296 0
+0.472976 -0.183220 0
+0.326711 -0.126560 0
+0.166846 -0.064632 0
+0.017607 -0.006820 0
+0.089556 -0.034692 0
+0.188499 -0.073020 0
+0.301657 -0.116855 0
+0.419713 -0.162587 0
+0.534331 -0.206987 0
+0.637995 -0.247145 0
+0.724069 -0.280488 0
+0.786977 -0.304856 0
+0.822395 -0.318577 0
+0.827416 -0.320522 0
+0.800651 -0.310154 0
+0.742283 -0.287543 0
+0.654037 -0.253359 0
+0.539093 -0.208832 0
+0.401918 -0.155694 0
+0.248055 -0.096091 0
+0.083839 -0.032477 0
+0.000000 +0.000000 0
+0.000000 +0.000000 0
+0.000000 +0.000000 0
+0.000000 +0.000000 0
+0.000000 +0.000000 0
+0.000000 +0.000000 0
+0.000000 +0.000000 0
+0.000000 +0.000000 0
+0.000000 +0.000000 0
+0.000000 +0.000000 0
+0.000000 +0.000000 0
+0.000000 +0.000000 0
+0.000000 +0.000000 0
+0.000000 +0.000000 0
+0.000000 +0.000000 0
+0.000000 +0.000000 0
+0.000000 +0.000000 0
+0.000000 +0.000000 0
+0.000000 +0.000000 0
+0.000000 +0.000000 0
+0.000000 +0.000000 0
+0.000000 +0.000000 0
+0.000000 +0.000000 0
+0.000000 +0.000000 0
+0.000000 +0.000000 0
+0.000000 +0.000000 0
+0.000000 +0.000000 0
+0.000000 +0.000000 0
+0.000000 +0.000000 0
+0.000000 +0.000000 0
+0.000000 +0.000000 0
+0.000000 +0.000000 0
+0.000000 +0.000000 0
+0.000000 +0.000000 0
+0.000000 +0.000000 0
+0.000000 +0.000000 0
+0.000000 +0.000000 0
+0.000000 +0.000000 0
+0.000000 +0.000000 0
+0.000000 +0.000000 0
+0.000000 +0.000000 0
+0.000000 +0.000000 0
+0.000000 +0.000000 0
+0.000000 +0.000000 0
+0.000000 +0.000000 0
+0.000000 +0.000000 0
+0.000000 +0.000000 0
+0.000000 +0.000000 0
+0.000000 +0.000000 0
+0.000000 +0.000000 0
+0.000000 +0.000000 0
+0.000000 +0.000000 0
+0.000000 +0.000000 0
+0.000000 +0.000000 0
+0.000000 +0.000000 0
+0.000000 +0.000000 0
+0.000000 +0.000000 0
+0.000000 +0.000000 0
+0.000000 +0.000000 0
+0.000000 +0.000000 0
+0.000000 +0.000000 0
+0.000000 +0.000000 0
+0.000000 +0.000000 0
+0.000000 +0.000000 0
+0.000000 +0.000000 0
+0.000000 +0.000000 0
+0.000000 +0.000000 0
+0.000000 +0.000000 0
+0.000000 +0.000000 0
+0.000000 +0.000000 0
-0.010839 +0.205266 0
-0.038811 +0.436465 0
-0.081139 +0.636096 0
-0.133308 +0.755329 0
-0.189789 +0.762241 0
-0.244658 +0.647066 0
-0.292073 +0.423636 0
-0.326699 +0.126555 0
-0.049204 +0.236831 0
-0.129504 +0.461189 0
-0.230284 +0.625731 0
-0.339304 +0.693171 0
-0.444319 +0.644460 0
-0.534209 +0.482637 0
-0.599654 +0.232292 0
-0.633597 -0.065053 0
-0.099775 +0.239580 0
-0.234929 +0.439707 0
-0.387266 +0.561706 0
-0.538509 +0.580046 0
-0.672332 +0.488217 0
-0.775343 +0.300350 0
-0.837459 +0.048716 0
-0.852144 -0.222190 0
-0.151967 +0.220414 0
-0.332988 +0.384020 0
-0.519352 +0.461573 0
-0.690179 +0.439094 0
-0.828821 +0.321066 0
-0.922866 +0.129726 0
-0.963866 -0.098962 0
-0.947340 -0.321743 0
-0.193780 +0.186195 0
-0.400371 +0.307364 0
-0.594837 +0.344374 0
-0.758705 +0.293905 0
-0.879077 +0.168799 0
-0.947071 -0.004567 0
-0.957175 -0.190945 0
-0.907323 -0.352213 0
-0.213166 +0.143717 0
-0.415522 +0.222529 0
-0.587948 +0.227757 0
-0.720173 +0.165030 0
-0.805763 +0.051746 0
-0.840098 -0.086254 0
-0.820428 -0.218710 0
-0.746234 -0.315591 0
-0.198658 +0.098600 0
-0.360582 +0.139681 0
-0.483240 +0.125631 0
-0.567859 +0.067706 0
-0.613503 -0.017371 0
-0.618478 -0.109116 0
-0.581603 -0.185722 0
-0.502359 -0.226828 0
-0.136522 +0.052886 0
-0.222466 +0.064533 0
-0.280418 +0.047486 0
-0.316015 +0.011288 0
-0.329658 -0.033844 0
-0.320785 -0.076665 0
-0.288738 -0.105920 0
-0.232000 -0.111195 0
-0.003190 +0.095767 0
+0.001146 +0.175896 0
+0.001328 +0.076800 0
-0.022808 +0.321302 0
-0.004813 +0.403554 0
-0.000849 +0.287648 0
-0.058431 +0.543592 0
-0.018774 +0.616766 0
-0.010800 +0.515676 0
-0.106324 +0.708232 0
-0.040188 +0.761162 0
-0.028629 +0.700396 0
-0.161377 +0.773993 0
-0.067417 +0.798750 0
-0.053215 +0.794881 0
-0.217797 +0.719590 0
-0.097944 +0.713221 0
-0.082455 +0.771456 0
-0.269647 +0.547145 0
-0.128576 +0.512285 0
-0.113466 +0.625779 0
-0.311286 +0.281488 0
-0.155716 +0.225851 0
-0.142813 +0.377155 0
-0.337789 -0.034679 0
-0.166826 +0.064625 0
-0.020166 +0.116941 0
-0.027926 +0.225128 0
-0.010501 +0.108699 0
-0.086071 +0.353637 0
-0.081068 +0.455278 0
-0.051702 +0.342888 0
-0.178082 +0.553620 0
-0.152786 +0.638583 0
-0.115106 +0.555809 0
-0.284545 +0.673273 0
-0.234599 +0.731942 0
-0.192998 +0.698588 0
-0.393043 +0.683677 0
-0.317379 +0.709825 0
-0.276436 +0.736070 0
-0.491786 +0.576620 0
-0.392287 +0.568990 0
-0.356339 +0.653536 0
-0.570487 +0.366253 0
-0.451416 +0.328957 0
-0.424268 +0.459340 0
-0.620904 +0.086435 0
-0.488269 +0.028242 0
-0.472965 +0.183216 0
-0.637274 -0.215613 0
-0.496809 -0.129380 0
-0.044410 +0.122032 0
-0.073576 +0.241364 0
-0.031669 +0.121217 0
-0.164034 +0.347204 0
-0.181690 +0.455516 0
-0.124173 +0.354693 0
-0.310119 +0.512465 0
-0.309805 +0.599398 0
-0.244223 +0.538581 0
-0.464106 +0.584726 0
-0.442341 +0.641590 0
-0.376476 +0.634490 0
-0.608510 +0.547493 0
-0.564600 +0.569435 0
-0.505603 +0.619757 0
-0.728399 +0.404641 0
-0.663921 +0.391820 0
-0.617821 +0.492427 0
-0.812008 +0.179921 0
-0.730263 +0.137628 0
-0.701729 +0.271834 0
-0.850991 -0.087373 0
-0.756579 -0.149609 0
-0.748737 -0.004945 0
-0.840711 -0.349608 0
-0.753439 -0.289961 0
-0.070843 +0.115050 0
-0.126402 +0.232314 0
-0.057712 +0.119832 0
-0.240364 +0.311439 0
-0.286345 +0.415324 0
-0.203511 +0.332367 0
-0.426900 +0.434841 0
-0.458487 +0.514963 0
-0.372207 +0.477206 0
-0.607851 +0.463000 0
-0.622713 +0.511540 0
-0.542736 +0.526651 0
-0.764394 +0.391017 0
-0.762019 +0.404302 0
-0.696400 +0.470166 0
-0.882037 +0.232567 0
-0.863116 +0.211874 0
-0.818027 +0.316885 0
-0.950372 +0.017431 0
-0.916487 -0.031088 0
-0.896213 +0.094075 0
-0.962911 -0.213871 0
-0.916501 -0.280190 0
-0.923356 -0.157812 0
-0.917267 -0.417306 0
-0.895876 -0.392473 0
-0.093517 +0.099499 0
-0.174937 +0.204751 0
-0.083037 +0.108125 0
-0.297177 +0.256445 0
-0.371933 +0.347479 0
-0.272327 +0.285705 0
-0.500426 +0.336989 0
-0.565973 +0.403938 0
-0.470722 +0.387432 0
-0.681511 +0.329631 0
-0.736674 +0.365639 0
-0.655307 +0.396474 0
-0.824965 +0.239304 0
-0.868787 +0.241639 0
-0.808327 +0.313127 0
-0.920043 +0.086088 0
-0.951438 +0.056794 0
-0.916824 +0.154760 0
-0.959573 -0.098521 0
-0.977574 -0.152732 0
-0.971865 -0.047421 0
-0.939730 -0.277034 0
-0.943960 -0.345811 0
-0.968282 -0.253896 0
-0.860296 -0.412335 0
-0.904861 -0.423745 0
-0.106275 +0.078849 0
-0.207002 +0.165591 0
-0.101513 +0.089604 0
-0.317162 +0.192131 0
-0.415691 +0.265245 0
-0.312789 +0.224884 0
-0.506257 +0.234301 0
-0.602946 +0.285017 0
-0.513100 +0.285388 0
-0.659537 +0.204040 0
-0.753700 +0.226336 0
-0.683588 +0.264806 0
-0.769125 +0.113248 0
-0.858123 +0.104884 0
-0.812184 +0.171998 0
-0.829558 -0.016005 0
-0.909518 -0.052616 0
-0.890765 +0.028655 0
-0.837101 -0.155113 0
-0.903862 -0.212912 0
-0.913963 -0.134603 0
-0.790087 -0.273336 0
-0.840032 -0.341636 0
-0.879168 -0.283256 0
-0.689180 -0.342521 0
-0.786823 -0.384508 0
-0.103128 +0.056101 0
-0.210868 +0.121231 0
-0.107067 +0.067591 0
-0.284638 +0.126463 0
-0.397765 +0.180384 0
-0.308401 +0.159108 0
-0.426692 +0.138992 0
-0.548263 +0.174196 0
-0.477914 +0.185133 0
-0.530322 +0.101218 0
-0.657866 +0.111707 0
-0.608382 +0.149048 0
-0.595661 +0.027345 0
-0.723301 +0.010720 0
-0.696303 +0.064646 0
-0.621168 -0.063775 0
-0.741661 -0.105030 0
-0.738511 -0.046940 0
-0.605314 -0.150649 0
-0.711151 -0.209152 0
-0.732569 -0.160195 0
-0.547303 -0.211861 0
-0.631452 -0.276347 0
-0.677416 -0.248804 0
-0.446647 -0.228669 0
-0.573411 -0.289367 0
-0.076820 +0.032550 0
-0.174743 +0.075956 0
-0.093507 +0.044479 0
-0.183833 +0.062948 0
-0.302458 +0.100965 0
-0.243869 +0.094469 0
-0.254366 +0.058990 0
-0.393354 +0.083107 0
-0.352003 +0.096718 0
-0.300941 +0.031174 0
-0.452626 +0.034012 0
-0.426871 +0.061643 0
-0.325612 -0.010850 0
-0.480511 -0.032189 0
-0.470548 +0.002068 0
-0.328074 -0.056260 0
-0.476043 -0.099253 0
-0.482381 -0.066669 0
-0.307711 -0.093662 0
-0.438376 -0.150478 0
-0.461405 -0.127854 0
-0.263653 -0.112177 0
-0.366503 -0.170492 0
-0.406828 -0.165264 0
-0.192817 -0.101647 0
-0.316883 -0.164566 0
-0.079891 +0.028156 0
-0.048342 +0.018727 0
-0.120893 +0.030680 0
-0.102588 +0.031484 0
-0.147721 +0.019543 0
-0.135793 +0.026487 0
-0.163113 -0.000086 0
-0.156818 +0.010468 0
-0.167206 -0.022836 0
-0.166587 -0.011427 0
-0.159715 -0.042959 0
-0.164929 -0.033586 0
-0.140201 -0.054818 0
-0.151506 -0.050259 0
-0.107169 -0.053017 0
-0.125589 -0.055981 0
-0.083714 -0.044886 0
+0.000843 +0.035229 0
+0.002421 +0.064351 0
-0.001029 +0.045797 0
-0.000552 +0.087213 0
-0.006458 +0.149255 0
-0.004155 +0.191899 0
+0.001449 +0.124157 0
+0.004991 +0.156928 0
+0.000391 +0.230731 0
+0.007162 +0.265825 0
-0.016294 +0.262937 0
-0.010879 +0.306075 0
-0.030324 +0.379455 0
-0.020662 +0.421848 0
-0.002576 +0.345585 0
+0.008555 +0.381443 0
-0.007549 +0.460553 0
+0.008902 +0.495492 0
-0.048195 +0.491465 0
-0.033327 +0.531671 0
-0.069431 +0.592058 0
-0.048598 +0.628621 0
-0.014539 +0.568020 0
+0.008002 +0.600414 0
-0.023471 +0.661126 0
+0.005715 +0.689480 0
-0.093459 +0.675034 0
-0.066113 +0.706599 0
-0.119631 +0.735159 0
-0.085445 +0.760562 0
-0.034204 +0.733929 0
+0.001965 +0.756950 0
-0.046530 +0.781613 0
-0.003262 +0.798272 0
-0.147250 +0.768378 0
-0.106113 +0.786713 0
-0.175584 +0.771988 0
-0.127595 +0.782657 0
-0.060185 +0.800667 0
-0.009913 +0.810246 0
-0.074851 +0.789024 0
-0.017871 +0.791147 0
-0.203888 +0.744752 0
-0.149339 +0.747494 0
-0.231415 +0.686943 0
-0.170775 +0.681853 0
-0.090165 +0.746137 0
-0.026954 +0.740789 0
-0.105726 +0.672991 0
-0.036920 +0.660517 0
-0.257429 +0.600323 0
-0.191322 +0.587847 0
-0.281222 +0.488055 0
-0.210402 +0.468966 0
-0.121099 +0.572046 0
-0.047474 +0.553130 0
-0.135831 +0.447111 0
-0.058273 +0.422744 0
-0.302120 +0.354544 0
-0.227452 +0.329906 0
-0.319502 +0.205225 0
-0.241936 +0.176341 0
-0.149459 +0.303155 0
-0.068945 +0.274584 0
-0.161522 +0.146071 0
-0.079098 +0.114731 0
-0.332813 +0.046304 0
-0.253368 +0.014648 0
-0.341594 -0.115550 0
-0.171592 -0.017619 0
-0.004352 +0.053033 0
-0.006518 +0.102899 0
-0.008913 +0.057755 0
-0.015064 +0.113362 0
-0.033630 +0.176892 0
-0.038101 +0.231939 0
-0.018374 +0.166340 0
-0.018793 +0.216296 0
-0.039059 +0.284265 0
-0.036468 +0.333529 0
-0.066728 +0.296013 0
-0.068300 +0.349551 0
-0.107047 +0.408953 0
-0.104653 +0.459772 0
-0.065736 +0.400173 0
-0.059024 +0.447567 0
-0.097560 +0.507416 0
-0.085795 +0.551594 0
-0.153238 +0.509643 0
-0.145990 +0.556429 0
-0.203822 +0.592511 0
-0.191031 +0.633971 0
-0.133554 +0.599756 0
-0.116002 +0.639365 0
-0.172642 +0.671707 0
-0.148781 +0.705498 0
-0.257251 +0.652799 0
-0.238433 +0.687765 0
-0.311955 +0.686824 0
-0.286834 +0.714332 0
-0.213693 +0.718794 0
-0.183216 +0.745711 0
-0.255556 +0.737769 0
-0.218367 +0.757016 0
-0.366391 +0.692157 0
-0.334891 +0.711511 0
-0.419074 +0.667752 0
-0.381304 +0.678567 0
-0.297086 +0.726762 0
-0.253290 +0.737851 0
-0.337171 +0.685362 0
-0.287056 +0.688142 0
-0.468608 +0.613997 0
-0.424846 +0.616220 0
-0.513700 +0.532692 0
-0.464374 +0.526615 0
-0.374750 +0.614632 0
-0.318770 +0.609300 0
-0.408830 +0.517058 0
-0.347583 +0.504153 0
-0.553181 +0.426968 0
-0.498849 +0.413212 0
-0.586015 +0.301132 0
-0.527345 +0.280622 0
-0.438497 +0.396426 0
-0.372704 +0.376800 0
-0.462935 +0.257638 0
-0.393419 +0.232420 0
-0.611315 +0.160469 0
-0.549068 +0.134389 0
-0.628356 +0.010987 0
-0.563366 -0.019275 0
-0.481435 +0.106478 0
-0.409100 +0.077019 0
-0.493413 -0.050660 0
-0.419228 -0.082859 0
-0.636586 -0.140863 0
-0.569750 -0.173785 0
-0.635655 -0.288502 0
-0.498436 -0.207088 0
-0.014462 +0.060400 0
-0.025717 +0.119548 0
-0.020710 +0.061243 0
-0.037919 +0.122035 0
-0.070840 +0.181714 0
-0.086526 +0.241215 0
-0.051427 +0.181786 0
-0.061074 +0.239945 0
-0.097889 +0.299248 0
-0.104769 +0.355312 0
-0.130925 +0.294972 0
-0.144009 +0.351949 0
-0.198792 +0.395656 0
-0.208350 +0.448789 0
-0.152178 +0.407016 0
-0.155287 +0.459719 0
-0.212447 +0.499575 0
-0.210961 +0.547607 0
-0.272130 +0.478817 0
-0.277419 +0.526796 0
-0.348588 +0.540226 0
-0.349051 +0.581837 0
-0.276752 +0.572019 0
-0.270039 +0.614128 0
-0.343121 +0.620336 0
-0.330750 +0.655421 0
-0.425859 +0.576621 0
-0.421123 +0.610823 0
-0.501738 +0.585895 0
-0.491606 +0.611883 0
-0.409622 +0.641634 0
-0.391354 +0.668814 0
-0.474403 +0.634299 0
-0.450181 +0.652968 0
-0.574175 +0.567216 0
-0.558606 +0.584469 0
-0.641297 +0.521076 0
-0.620391 +0.529384 0
-0.535732 +0.598079 0
-0.505666 +0.607945 0
-0.592021 +0.534105 0
-0.556368 +0.535207 0
-0.701427 +0.449270 0
-0.675403 +0.448757 0
-0.753091 +0.354821 0
-0.722275 +0.345935 0
-0.641840 +0.444835 0
-0.600986 +0.437549 0
-0.683929 +0.333947 0
-0.638373 +0.318967 0
-0.795027 +0.241833 0
-0.759834 +0.225334 0
-0.826188 +0.115305 0
-0.787114 +0.092231 0
-0.717212 +0.206155 0
-0.667546 +0.184468 0
-0.740802 +0.067000 0
-0.687702 +0.039837 0
-0.845753 -0.019102 0
-0.803364 -0.047483 0
-0.853138 -0.155330 0
-0.808060 -0.187577 0
-0.754018 -0.077418 0
-0.698227 -0.108639 0
-0.756397 -0.220723 0
-0.698716 -0.254469 0
-0.848006 -0.287201 0
-0.800926 -0.321775 0
-0.830292 -0.408712 0
-0.747717 -0.356567 0
-0.027324 +0.060516 0
-0.051028 +0.121288 0
-0.033945 +0.058437 0
-0.064338 +0.117742 0
-0.110299 +0.169248 0
-0.139408 +0.226894 0
-0.090833 +0.177320 0
-0.113121 +0.236585 0
-0.164065 +0.284204 0
-0.183954 +0.340632 0
-0.195442 +0.267996 0
-0.222403 +0.322590 0
-0.286331 +0.350268 0
-0.310445 +0.400438 0
-0.244377 +0.376256 0
-0.261045 +0.428491 0
-0.329060 +0.449119 0
-0.341861 +0.495859 0
-0.379957 +0.412325 0
-0.400697 +0.456789 0
-0.473469 +0.451326 0
-0.490463 +0.488953 0
-0.415449 +0.499254 0
-0.423915 +0.539323 0
-0.501009 +0.524145 0
-0.504834 +0.556562 0
-0.564241 +0.465483 0
-0.577253 +0.495356 0
-0.649915 +0.454172 0
-0.658819 +0.475627 0
-0.583390 +0.522445 0
-0.582415 +0.546479 0
-0.660460 +0.494056 0
-0.654652 +0.509261 0
-0.728413 +0.417961 0
-0.733165 +0.430625 0
-0.797929 +0.358591 0
-0.798553 +0.362399 0
-0.730322 +0.440139 0
-0.719753 +0.446385 0
-0.791315 +0.363063 0
-0.776148 +0.360542 0
-0.856913 +0.278891 0
-0.853490 +0.274096 0
-0.904069 +0.182646 0
-0.896725 +0.169817 0
-0.842012 +0.266296 0
-0.822487 +0.255522 0
-0.881225 +0.154245 0
-0.857650 +0.136032 0
-0.938338 +0.074431 0
-0.927249 +0.054425 0
-0.958909 -0.040603 0
-0.944298 -0.066670 0
-0.907999 +0.032055 0
-0.880746 +0.007484 0
-0.921628 -0.094627 0
-0.891130 -0.124259 0
-0.965216 -0.156956 0
-0.947361 -0.187764 0
-0.956957 -0.269030 0
-0.936195 -0.303111 0
-0.921658 -0.219914 0
-0.888406 -0.253150 0
-0.907905 -0.337942 0
-0.872452 -0.373241 0
-0.934102 -0.371380 0
-0.910836 -0.407192 0
-0.896910 -0.458964 0
-0.880470 -0.443151 0
-0.040192 +0.055225 0
-0.077098 +0.111833 0
-0.045675 +0.051102 0
-0.088533 +0.104002 0
-0.143030 +0.144694 0
-0.184965 +0.195785 0
-0.128084 +0.158154 0
-0.163868 +0.213003 0
-0.223150 +0.247428 0
-0.257093 +0.299097 0
-0.245299 +0.223580 0
-0.285774 +0.271442 0
-0.348991 +0.284471 0
-0.387633 +0.327773 0
-0.322046 +0.319181 0
-0.353600 +0.366304 0