# vtk DataFile Version 2.0
MyTitle
ASCII
DATASET UNSTRUCTURED_GRID
POINTS 3025 double
1.000000 0.000000 0.000000
0.500000 0.866025 0.000000
0.500000 -0.866025 0.000000
-1.000000 0.000000 0.000000
-0.500000 -0.866025 0.000000
-0.500000 0.866025 0.000000
0.000000 0.000000 0.000000
0.972222 0.048113 0.000000
0.944444 0.096225 0.000000
0.916667 0.144338 0.000000
0.888889 0.192450 0.000000
0.861111 0.240563 0.000000
0.833333 0.288675 0.000000
0.805556 0.336788 0.000000
0.777778 0.384900 0.000000
0.750000 0.433013 0.000000
0.722222 0.481125 0.000000
0.694444 0.529238 0.000000
0.666667 0.577350 0.000000
0.638889 0.625463 0.000000
0.611111 0.673575 0.000000
0.583333 0.721688 0.000000
0.555556 0.769800 0.000000
0.527778 0.817913 0.000000
0.986111 0.024056 0.000000
0.958333 0.072169 0.000000
0.930556 0.120281 0.000000
0.902778 0.168394 0.000000
0.875000 0.216506 0.000000
0.847222 0.264619 0.000000
0.819444 0.312731 0.000000
0.791667 0.360844 0.000000
0.763889 0.408956 0.000000
0.736111 0.457069 0.000000
0.708333 0.505181 0.000000
0.680556 0.553294 0.000000
0.652778 0.601407 0.000000
0.625000 0.649519 0.000000
0.597222 0.697632 0.000000
0.569444 0.745744 0.000000
0.541667 0.793857 0.000000
0.513889 0.841969 0.000000
0.472222 0.817913 0.000000
0.444444 0.769800 0.000000
0.416667 0.721688 0.000000
0.388889 0.673575 0.000000
0.361111 0.625463 0.000000
0.333333 0.577350 0.000000
0.305556 0.529238 0.000000
0.277778 0.481125 0.000000
0.250000 0.433013 0.000000
0.222222 0.384900 0.000000
0.194444 0.336788 0.000000
0.166667 0.288675 0.000000
0.138889 0.240563 0.000000
0.111111 0.192450 0.000000
0.083333 0.144338 0.000000
0.055556 0.096225 0.000000
0.027778 0.048113 0.000000
0.486111 0.841969 0.000000
0.458333 0.793857 0.000000
0.430556 0.745744 0.000000
0.402778 0.697632 0.000000
0.375000 0.649519 0.000000
0.347222 0.601407 0.000000
0.319444 0.553294 0.000000
0.291667 0.505181 0.000000
0.263889 0.457069 0.000000
0.236111 0.408956 0.000000
0.208333 0.360844 0.000000
0.180556 0.312731 0.000000
0.152778 0.264619 0.000000
0.125000 0.216506 0.000000
0.097222 0.168394 0.000000
0.069444 0.120281 0.000000
0.041667 0.072169 0.000000
0.013889 0.024056 0.000000
0.027778 -0.048113 0.000000
0.055556 -0.096225 0.000000
0.083333 -0.144338 0.000000
0.111111 -0.192450 0.000000
0.138889 -0.240563 0.000000
0.166667 -0.288675 0.000000
0.194444 -0.336788 0.000000
0.222222 -0.384900 0.000000
0.250000 -0.433013 0.000000
0.277778 -0.481125 0.000000
0.305556 -0.529238 0.000000
0.333333 -0.577350 0.000000
0.361111 -0.625463 0.000000
0.388889 -0.673575 0.000000
0.416667 -0.721688 0.000000
0.444444 -0.769800 0.000000
0.472222 -0.817913 0.000000
0.013889 -0.024056 0.000000
0.041667 -0.072169 0.000000
0.069444 -0.120281 0.000000
0.097222 -0.168394 0.000000
0.125000 -0.216506 0.000000
0.152778 -0.264619 0.000000
0.180556 -0.312731 0.000000
0.208333 -0.360844 0.000000
0.236111 -0.408956 0.000000
0.263889 -0.457069 0.000000
0.291667 -0.505181 0.000000
0.319444 -0.553294 0.000000
0.347222 -0.601407 0.000000
0.375000 -0.649519 0.000000
0.402778 -0.697632 0.000000
0.430556 -0.745744 0.000000
0.458333 -0.793857 0.000000
0.486111 -0.841969 0.000000
0.527778 -0.817913 0.000000
0.555556 -0.769800 0.000000
0.583333 -0.721688 0.000000
0.611111 -0.673575 0.000000
0.638889 -0.625463 0.000000
0.666667 -0.577350 0.000000
0.694444 -0.529238 0.000000
0.722222 -0.481125 0.000000
0.750000 -0.433013 0.000000
0.777778 -0.384900 0.000000
0.805556 -0.336788 0.000000
0.833333 -0.288675 0.000000
0.861111 -0.240563 0.000000
0.888889 -0.192450 0.000000
0.916667 -0.144338 0.000000
0.944444 -0.096225 0.000000
0.972222 -0.048113 0.000000
0.513889 -0.841969 0.000000
0.541667 -0.793857 0.000000
0.569444 -0.745744 0.000000
0.597222 -0.697632 0.000000
0.625000 -0.649519 0.000000
0.652778 -0.601407 0.000000
0.680556 -0.553294 0.000000
0.708333 -0.505181 0.000000
0.736111 -0.457069 0.000000
0.763889 -0.408956 0.000000
0.791667 -0.360844 0.000000
0.819444 -0.312731 0.000000
0.847222 -0.264619 0.000000
0.875000 -0.216506 0.000000
0.902778 -0.168394 0.000000
0.930556 -0.120281 0.000000
0.958333 -0.072169 0.000000
0.986111 -0.024056 0.000000
0.444444 0.866025 0.000000
0.388889 0.866025 0.000000
0.333333 0.866025 0.000000
0.277778 0.866025 0.000000
0.222222 0.866025 0.000000
0.166667 0.866025 0.000000
0.111111 0.866025 0.000000
0.055556 0.866025 0.000000
0.000000 0.866025 0.000000
-0.055556 0.866025 0.000000
-0.111111 0.866025 0.000000
-0.166667 0.866025 0.000000
-0.222222 0.866025 0.000000
-0.277778 0.866025 0.000000
-0.333333 0.866025 0.000000
-0.388889 0.866025 0.000000
-0.444444 0.866025 0.000000
0.472222 0.866025 0.000000
0.416667 0.866025 0.000000
0.361111 0.866025 0.000000
0.305556 0.866025 0.000000
0.250000 0.866025 0.000000
0.194444 0.866025 0.000000
0.138889 0.866025 0.000000
0.083333 0.866025 0.000000
0.027778 0.866025 0.000000
-0.027778 0.866025 0.000000
-0.083333 0.866025 0.000000
-0.138889 0.866025 0.000000
-0.194444 0.866025 0.000000
-0.250000 0.866025 0.000000
-0.305556 0.866025 0.000000
-0.361111 0.866025 0.000000
-0.416667 0.866025 0.000000
-0.472222 0.866025 0.000000
-0.527778 0.817913 0.000000
-0.555556 0.769800 0.000000
-0.583333 0.721688 0.000000
-0.611111 0.673575 0.000000
-0.638889 0.625463 0.000000
-0.666667 0.577350 0.000000
-0.694444 0.529238 0.000000
-0.722222 0.481125 0.000000
-0.750000 0.433013 0.000000
-0.777778 0.384900 0.000000
-0.805556 0.336788 0.000000
-0.833333 0.288675 0.000000
-0.861111 0.240563 0.000000
-0.888889 0.192450 0.000000
-0.916667 0.144338 0.000000
-0.944444 0.096225 0.000000
-0.972222 0.048113 0.000000
-0.513889 0.841969 0.000000
-0.541667 0.793857 0.000000
-0.569444 0.745744 0.000000
-0.597222 0.697632 0.000000
-0.625000 0.649519 0.000000
-0.652778 0.601407 0.000000
-0.680556 0.553294 0.000000
-0.708333 0.505181 0.000000
-0.736111 0.457069 0.000000
-0.763889 0.408956 0.000000
-0.791667 0.360844 0.000000
-0.819444 0.312731 0.000000
-0.847222 0.264619 0.000000
-0.875000 0.216506 0.000000
-0.902778 0.168394 0.000000
-0.930556 0.120281 0.000000
-0.958333 0.072169 0.000000
-0.986111 0.024056 0.000000
-0.944444 0.000000 0.000000
-0.888889 0.000000 0.000000
-0.833333 0.000000 0.000000
-0.777778 0.000000 0.000000
-0.722222 0.000000 0.000000
-0.666667 0.000000 0.000000
-0.611111 0.000000 0.000000
-0.555556 0.000000 0.000000
-0.500000 0.000000 0.000000
-0.444444 0.000000 0.000000
-0.388889 0.000000 0.000000
-0.333333 0.000000 0.000000
-0.277778 0.000000 0.000000
-0.222222 0.000000 0.000000
-0.166667 0.000000 0.000000
-0.111111 0.000000 0.000000
-0.055556 0.000000 0.000000
-0.972222 0.000000 0.000000
-0.916667 0.000000 0.000000
-0.861111 0.000000 0.000000
-0.805556 0.000000 0.000000
-0.750000 0.000000 0.000000
-0.694444 0.000000 0.000000
-0.638889 0.000000 0.000000
-0.583333 0.000000 0.000000
-0.527778 0.000000 0.000000
-0.472222 0.000000 0.000000
-0.416667 0.000000 0.000000
-0.361111 0.000000 0.000000
-0.305556 0.000000 0.000000
-0.250000 0.000000 0.000000
-0.194444 0.000000 0.000000
-0.138889 0.000000 0.000000
-0.083333 0.000000 0.000000
-0.027778 0.000000 0.000000
-0.972222 -0.048113 0.000000
-0.944444 -0.096225 0.000000
-0.916667 -0.144338 0.000000
-0.888889 -0.192450 0.000000
-0.861111 -0.240563 0.000000
-0.833333 -0.288675 0.000000
-0.805556 -0.336788 0.000000
-0.777778 -0.384900 0.000000
-0.750000 -0.433013 0.000000
-0.722222 -0.481125 0.000000
-0.694444 -0.529238 0.000000
-0.666667 -0.577350 0.000000
-0.638889 -0.625463 0.000000
-0.611111 -0.673575 0.000000
-0.583333 -0.721688 0.000000
-0.555556 -0.769800 0.000000
-0.527778 -0.817913 0.000000
-0.986111 -0.024056 0.000000
-0.958333 -0.072169 0.000000
-0.930556 -0.120281 0.000000
-0.902778 -0.168394 0.000000
-0.875000 -0.216506 0.000000
-0.847222 -0.264619 0.000000
-0.819444 -0.312731 0.000000
-0.791667 -0.360844 0.000000
-0.763889 -0.408956 0.000000
-0.736111 -0.457069 0.000000
-0.708333 -0.505181 0.000000
-0.680556 -0.553294 0.000000
-0.652778 -0.601407 0.000000
-0.625000 -0.649519 0.000000
-0.597222 -0.697632 0.000000
-0.569444 -0.745744 0.000000
-0.541667 -0.793857 0.000000
-0.513889 -0.841969 0.000000
-0.444444 -0.866025 0.000000
-0.388889 -0.866025 0.000000
-0.333333 -0.866025 0.000000
-0.277778 -0.866025 0.000000
-0.222222 -0.866025 0.000000
-0.166667 -0.866025 0.000000
-0.111111 -0.866025 0.000000
-0.055556 -0.866025 0.000000
-0.000000 -0.866025 0.000000
0.055556 -0.866025 0.000000
0.111111 -0.866025 0.000000
0.166667 -0.866025 0.000000
0.222222 -0.866025 0.000000
0.277778 -0.866025 0.000000
0.333333 -0.866025 0.000000
0.388889 -0.866025 0.000000
0.444444 -0.866025 0.000000
-0.472222 -0.866025 0.000000
-0.416667 -0.866025 0.000000
-0.361111 -0.866025 0.000000
-0.305556 -0.866025 0.000000
-0.250000 -0.866025 0.000000
-0.194444 -0.866025 0.000000
-0.138889 -0.866025 0.000000
-0.083333 -0.866025 0.000000
-0.027778 -0.866025 0.000000
0.027778 -0.866025 0.000000
0.083333 -0.866025 0.000000
0.138889 -0.866025 0.000000
0.194444 -0.866025 0.000000
0.250000 -0.866025 0.000000
0.305556 -0.866025 0.000000
0.361111 -0.866025 0.000000
0.416667 -0.866025 0.000000
0.472222 -0.866025 0.000000
0.500000 -0.673575 0.000000
0.444444 -0.577350 0.000000
0.388889 -0.481125 0.000000
0.333333 -0.384900 0.000000
0.277778 -0.288675 0.000000
0.222222 -0.192450 0.000000
0.166667 -0.096225 0.000000
0.111111 0.000000 0.000000
0.555556 -0.577350 0.000000
0.500000 -0.481125 0.000000
0.444444 -0.384900 0.000000
0.388889 -0.288675 0.000000
0.333333 -0.192450 0.000000
0.277778 -0.096225 0.000000
0.222222 0.000000 0.000000
0.166667 0.096225 0.000000
0.611111 -0.481125 0.000000
0.555556 -0.384900 0.000000
0.500000 -0.288675 0.000000
0.444444 -0.192450 0.000000
0.388889 -0.096225 0.000000
0.333333 0.000000 0.000000
0.277778 0.096225 0.000000
0.222222 0.192450 0.000000
0.666667 -0.384900 0.000000
0.611111 -0.288675 0.000000
0.555556 -0.192450 0.000000
0.500000 -0.096225 0.000000
0.444444 0.000000 0.000000
0.388889 0.096225 0.000000
0.333333 0.192450 0.000000
0.277778 0.288675 0.000000
0.722222 -0.288675 0.000000
[...]
POINT_DATA 3025
VECTORS sol double
+0.000000 +0.000000 0
+0.000000 +0.000000 0
+0.000000 +0.000000 0
+0.000000 +0.000000 0
+0.000000 +0.000000 0
+0.000000 +0.000000 0
-1.207656 +0.035357 0
+0.000000 +0.000000 0
+0.000000 +0.000000 0
+0.000000 +0.000000 0
+0.000000 +0.000000 0
+0.000000 +0.000000 0
+0.000000 +0.000000 0
+0.000000 +0.000000 0
+0.000000 +0.000000 0
+0.000000 +0.000000 0
+0.000000 +0.000000 0
+0.000000 +0.000000 0
+0.000000 +0.000000 0
+0.000000 +0.000000 0
+0.000000 +0.000000 0
+0.000000 +0.000000 0
+0.000000 +0.000000 0
+0.000000 +0.000000 0
+0.000000 +0.000000 0
+0.000000 +0.000000 0
+0.000000 +0.000000 0
+0.000000 +0.000000 0
+0.000000 +0.000000 0
+0.000000 +0.000000 0
+0.000000 +0.000000 0
+0.000000 +0.000000 0
+0.000000 +0.000000 0
+0.000000 +0.000000 0
+0.000000 +0.000000 0
+0.000000 +0.000000 0
+0.000000 +0.000000 0
+0.000000 +0.000000 0
+0.000000 +0.000000 0
+0.000000 +0.000000 0
+0.000000 +0.000000 0
+0.000000 +0.000000 0
-0.031684 +0.000928 0
-0.089842 +0.002630 0
-0.163180 +0.004777 0
-0.247503 +0.007246 0
-0.339299 +0.009934 0
-0.435688 +0.012756 0
-0.534073 +0.015636 0
-0.632079 +0.018505 0
-0.727524 +0.021300 0
-0.818415 +0.023961 0
-0.902947 +0.026436 0
-0.979512 +0.028677 0
-1.046704 +0.030644 0
-1.103326 +0.032302 0
-1.148391 +0.033622 0
-1.181132 +0.034580 0
-1.200997 +0.035162 0
-0.011423 +0.000334 0
-0.058509 +0.001713 0
-0.124892 +0.003656 0
-0.204217 +0.005979 0
-0.292660 +0.008568 0
-0.387094 +0.011333 0
-0.484791 +0.014193 0
-0.583270 +0.017076 0
-0.680256 +0.019916 0
-0.773662 +0.022651 0
-0.861586 +0.025225 0
-0.942323 +0.027588 0
-1.014364 +0.029698 0
-1.076407 +0.031514 0
-1.127359 +0.033006 0
-1.166344 +0.034147 0
-1.192702 +0.034919 0
-1.205991 +0.035308 0
-1.200997 +0.035162 0
-1.181132 +0.034580 0
-1.148391 +0.033622 0
-1.103326 +0.032302 0
-1.046704 +0.030644 0
-0.979512 +0.028677 0
-0.902947 +0.026436 0
-0.818415 +0.023961 0
-0.727524 +0.021300 0
-0.632079 +0.018505 0
-0.534073 +0.015636 0
-0.435688 +0.012756 0
-0.339299 +0.009934 0
-0.247503 +0.007246 0
-0.163180 +0.004777 0
-0.089842 +0.002630 0
-0.031684 +0.000928 0
-1.205991 +0.035308 0
-1.192702 +0.034919 0
-1.166344 +0.034147 0
-1.127359 +0.033006 0
-1.076407 +0.031514 0
-1.014364 +0.029698 0
-0.942323 +0.027588 0
-0.861586 +0.025225 0
-0.773662 +0.022651 0
-0.680256 +0.019916 0
-0.583270 +0.017076 0
-0.484791 +0.014193 0
-0.387094 +0.011333 0
-0.292660 +0.008568 0
-0.204217 +0.005979 0
-0.124892 +0.003656 0
-0.058509 +0.001713 0
-0.011423 +0.000334 0
+0.000000 +0.000000 0
+0.000000 +0.000000 0
+0.000000 +0.000000 0
+0.000000 +0.000000 0
+0.000000 +0.000000 0
+0.000000 +0.000000 0
+0.000000 +0.000000 0
+0.000000 +0.000000 0
+0.000000 +0.000000 0
+0.000000 +0.000000 0
+0.000000 +0.000000 0
+0.000000 +0.000000 0
+0.000000 +0.000000 0
+0.000000 +0.000000 0
+0.000000 +0.000000 0
+0.000000 +0.000000 0
+0.000000 +0.000000 0
+0.000000 +0.000000 0
+0.000000 +0.000000 0
+0.000000 +0.000000 0
+0.000000 +0.000000 0
+0.000000 +0.000000 0
+0.000000 +0.000000 0
+0.000000 +0.000000 0
+0.000000 +0.000000 0
+0.000000 +0.000000 0
+0.000000 +0.000000 0
+0.000000 +0.000000 0
+0.000000 +0.000000 0
+0.000000 +0.000000 0
+0.000000 +0.000000 0
+0.000000 +0.000000 0
+0.000000 +0.000000 0
+0.000000 +0.000000 0
+0.000000 +0.000000 0
+0.000000 +0.000000 0
+0.000000 +0.000000 0
+0.000000 +0.000000 0
+0.000000 +0.000000 0
+0.000000 +0.000000 0
+0.000000 +0.000000 0
+0.000000 +0.000000 0
+0.000000 +0.000000 0
+0.000000 +0.000000 0
+0.000000 +0.000000 0
+0.000000 +0.000000 0
+0.000000 +0.000000 0
+0.000000 +0.000000 0
+0.000000 +0.000000 0
+0.000000 +0.000000 0
+0.000000 +0.000000 0
+0.000000 +0.000000 0
+0.000000 +0.000000 0
+0.000000 +0.000000 0
+0.000000 +0.000000 0
+0.000000 +0.000000 0
+0.000000 +0.000000 0
+0.000000 +0.000000 0
+0.000000 +0.000000 0
+0.000000 +0.000000 0
+0.000000 +0.000000 0
+0.000000 +0.000000 0
+0.000000 +0.000000 0
+0.000000 +0.000000 0
+0.000000 +0.000000 0
+0.000000 +0.000000 0
+0.000000 +0.000000 0
+0.000000 +0.000000 0
+0.000000 +0.000000 0
+0.000000 +0.000000 0
+0.000000 +0.000000 0
+0.000000 +0.000000 0
+0.000000 +0.000000 0
+0.000000 +0.000000 0
+0.000000 +0.000000 0
+0.000000 +0.000000 0
+0.000000 +0.000000 0
+0.000000 +0.000000 0
+0.000000 +0.000000 0
+0.000000 +0.000000 0
+0.000000 +0.000000 0
+0.000000 +0.000000 0
+0.000000 +0.000000 0
+0.000000 +0.000000 0
+0.000000 +0.000000 0
+0.000000 +0.000000 0
+0.000000 +0.000000 0
+0.000000 +0.000000 0
+0.000000 +0.000000 0
+0.000000 +0.000000 0
+0.000000 +0.000000 0
+0.000000 +0.000000 0
+0.000000 +0.000000 0
+0.000000 +0.000000 0
+0.000000 +0.000000 0
+0.000000 +0.000000 0
+0.000000 +0.000000 0
+0.000000 +0.000000 0
+0.000000 +0.000000 0
+0.000000 +0.000000 0
+0.000000 +0.000000 0
+0.000000 +0.000000 0
+0.000000 +0.000000 0
+0.000000 +0.000000 0
+0.000000 +0.000000 0
-0.031684 +0.000928 0
-0.089842 +0.002630 0
-0.163180 +0.004777 0
-0.247503 +0.007246 0
-0.339299 +0.009934 0
-0.435688 +0.012756 0
-0.534073 +0.015636 0
-0.632079 +0.018505 0
-0.727524 +0.021300 0
-0.818415 +0.023961 0
-0.902947 +0.026436 0
-0.979512 +0.028677 0
-1.046704 +0.030644 0
-1.103326 +0.032302 0
-1.148391 +0.033622 0
-1.181132 +0.034580 0
-1.200997 +0.035162 0
-0.011423 +0.000334 0
-0.058509 +0.001713 0
-0.124892 +0.003656 0
-0.204217 +0.005979 0
-0.292660 +0.008568 0
-0.387094 +0.011333 0
-0.484791 +0.014193 0
-0.583270 +0.017076 0
-0.680256 +0.019916 0
-0.773662 +0.022651 0
-0.861586 +0.025225 0
-0.942323 +0.027588 0
-1.014364 +0.029698 0
-1.076407 +0.031514 0
-1.127359 +0.033006 0
-1.166344 +0.034147 0
-1.192702 +0.034919 0
-1.205991 +0.035308 0
+0.000000 +0.000000 0
+0.000000 +0.000000 0
+0.000000 +0.000000 0
+0.000000 +0.000000 0
+0.000000 +0.000000 0
+0.000000 +0.000000 0
+0.000000 +0.000000 0
+0.000000 +0.000000 0
+0.000000 +0.000000 0
+0.000000 +0.000000 0
+0.000000 +0.000000 0
+0.000000 +0.000000 0
+0.000000 +0.000000 0
+0.000000 +0.000000 0
+0.000000 +0.000000 0
+0.000000 +0.000000 0
+0.000000 +0.000000 0
+0.000000 +0.000000 0
+0.000000 +0.000000 0
+0.000000 +0.000000 0
+0.000000 +0.000000 0
+0.000000 +0.000000 0
+0.000000 +0.000000 0
+0.000000 +0.000000 0
+0.000000 +0.000000 0
+0.000000 +0.000000 0
+0.000000 +0.000000 0
+0.000000 +0.000000 0
+0.000000 +0.000000 0
+0.000000 +0.000000 0
+0.000000 +0.000000 0
+0.000000 +0.000000 0
+0.000000 +0.000000 0
+0.000000 +0.000000 0
+0.000000 +0.000000 0
+0.000000 +0.000000 0
+0.000000 +0.000000 0
+0.000000 +0.000000 0
+0.000000 +0.000000 0
+0.000000 +0.000000 0
+0.000000 +0.000000 0
+0.000000 +0.000000 0
+0.000000 +0.000000 0
+0.000000 +0.000000 0
+0.000000 +0.000000 0
+0.000000 +0.000000 0
+0.000000 +0.000000 0
+0.000000 +0.000000 0
+0.000000 +0.000000 0
+0.000000 +0.000000 0
+0.000000 +0.000000 0
+0.000000 +0.000000 0
+0.000000 +0.000000 0
+0.000000 +0.000000 0
+0.000000 +0.000000 0
+0.000000 +0.000000 0
+0.000000 +0.000000 0
+0.000000 +0.000000 0
+0.000000 +0.000000 0
+0.000000 +0.000000 0
+0.000000 +0.000000 0
+0.000000 +0.000000 0
+0.000000 +0.000000 0
+0.000000 +0.000000 0
+0.000000 +0.000000 0
+0.000000 +0.000000 0
+0.000000 +0.000000 0
+0.000000 +0.000000 0
+0.000000 +0.000000 0
+0.000000 +0.000000 0
-0.142091 +0.004160 0
-0.321452 +0.009411 0
-0.517138 +0.015140 0
-0.710410 +0.020799 0
-0.885123 +0.025914 0
-1.028011 +0.030097 0
-1.128952 +0.033052 0
-1.181133 +0.034580 0
-0.174881 +0.005120 0
-0.369039 +0.010804 0
-0.566010 +0.016571 0
-0.750074 +0.021960 0
-0.907671 +0.026574 0
-1.028010 +0.030097 0
-1.103327 +0.032302 0
-1.128952 +0.033052 0
-0.193616 +0.005669 0
-0.392494 +0.011491 0
-0.582315 +0.017048 0
-0.750074 +0.021960 0
-0.885122 +0.025914 0
-0.979514 +0.028677 0
-1.028010 +0.030097 0
-1.028011 +0.030097 0
-0.199758 +0.005848 0
-0.392493 +0.011491 0
-0.566008 +0.016571 0
-0.710408 +0.020799 0
-0.818416 +0.023961 0
-0.885122 +0.025914 0
-0.907671 +0.026574 0
-0.885123 +0.025914 0
-0.193616 +0.005668 0
-0.369036 +0.010804 0
-0.517134 +0.015140 0
-0.632079 +0.018505 0
-0.710408 +0.020799 0
-0.750074 +0.021960 0
-0.750074 +0.021960 0
-0.710410 +0.020799 0
-0.174880 +0.005120 0
-0.321445 +0.009411 0
-0.435686 +0.012756 0
-0.517134 +0.015140 0
-0.566008 +0.016571 0
-0.582315 +0.017048 0
-0.566010 +0.016571 0
-0.517138 +0.015140 0
-0.142088 +0.004160 0
-0.247492 +0.007246 0
-0.321445 +0.009411 0
-0.369036 +0.010804 0
-0.392493 +0.011491 0
-0.392494 +0.011491 0
-0.369039 +0.010804 0
-0.321452 +0.009411 0
-0.089746 +0.002628 0
-0.142088 +0.004160 0
-0.174880 +0.005120 0
-0.193616 +0.005668 0
-0.199758 +0.005848 0
-0.193616 +0.005669 0
-0.174881 +0.005120 0
-0.142091 +0.004160 0
-0.065032 +0.001904 0
-0.119090 +0.003487 0
-0.051223 +0.001500 0
-0.228463 +0.006689 0
-0.288018 +0.008432 0
-0.199159 +0.005831 0
-0.418484 +0.012252 0
-0.480499 +0.014068 0
-0.382686 +0.011204 0
-0.615149 +0.018010 0
-0.675979 +0.019791 0
-0.579014 +0.016952 0
-0.800986 +0.023451 0
-0.857159 +0.025095 0
-0.769323 +0.022524 0
-0.961254 +0.028143 0
-1.009724 +0.029562 0
-0.937792 +0.027456 0
-1.084229 +0.031743 0
-1.122522 +0.032864 0
-1.071662 +0.031375 0
-1.161431 +0.034003 0
-1.187736 +0.034773 0
-1.161432 +0.034003 0
-1.187736 +0.034773 0
-1.200998 +0.035162 0
-0.084045 +0.002461 0
-0.160426 +0.004697 0
-0.075683 +0.002216 0
-0.270571 +0.007922 0
-0.348348 +0.010199 0
-0.252080 +0.007380 0
-0.468195 +0.013707 0
-0.545641 +0.015975 0
-0.446939 +0.013085 0
-0.660563 +0.019339 0
-0.735161 +0.021523 0
-0.642364 +0.018807 0
-0.832924 +0.024386 0
-0.902019 +0.026408 0
-0.822248 +0.024073 0
-0.973055 +0.028488 0
-1.034134 +0.030276 0
-0.973056 +0.028488 0
-1.071661 +0.031375 0
-1.122521 +0.032864 0
-1.084229 +0.031743 0
-1.122521 +0.032864 0
-1.161431 +0.034003 0
-1.148393 +0.033622 0
-1.122522 +0.032864 0
-1.161432 +0.034003 0
-0.095255 +0.002789 0
-0.185872 +0.005442 0
-0.090508 +0.002650 0
-0.293304 +0.008587 0
-0.383719 +0.011234 0
-0.284254 +0.008322 0
-0.489397 +0.014328 0
-0.578238 +0.016929 0
-0.482335 +0.014121 0
-0.669680 +0.019606 0
-0.755056 +0.022106 0
-0.669680 +0.019606 0
-0.822247 +0.024073 0
-0.902019 +0.026408 0
-0.832924 +0.024386 0
-0.937790 +0.027456 0
-1.009723 +0.029562 0
-0.961253 +0.028143 0
-1.009723 +0.029562 0
-1.071661 +0.031375 0
-1.046706 +0.030644 0
-1.034134 +0.030276 0
-1.084229 +0.031743 0
-1.084229 +0.031743 0
-1.009724 +0.029562 0
-1.071662 +0.031375 0
-0.099934 +0.002926 0
-0.198227 +0.005803 0
-0.098381 +0.002880 0
-0.297809 +0.008719 0
-0.395413 +0.011577 0
-0.297809 +0.008719 0
-0.482334 +0.014121 0
-0.578237 +0.016929 0
-0.489396 +0.014328 0
-0.642362 +0.018806 0
-0.735159 +0.021523 0
-0.660562 +0.019339 0
-0.769319 +0.022523 0
-0.857156 +0.025095 0
-0.800985 +0.023450 0
-0.857156 +0.025095 0
-0.937790 +0.027456 0
-0.902949 +0.026436 0
-0.902019 +0.026408 0
-0.973055 +0.028488 0
-0.961253 +0.028143 0
-0.902019 +0.026408 0
-0.961254 +0.028143 0
-0.973056 +0.028488 0
-0.857159 +0.025095 0
-0.937792 +0.027456 0
-0.098381 +0.002880 0
-0.198226 +0.005803 0
-0.099934 +0.002926 0
-0.284253 +0.008322 0
-0.383717 +0.011234 0
-0.293303 +0.008587 0
-0.446935 +0.013085 0
-0.545638 +0.015975 0
-0.468193 +0.013707 0
-0.579009 +0.016952 0
-0.675974 +0.019791 0
-0.615146 +0.018010 0
-0.675974 +0.019791 0
-0.769319 +0.022523 0
-0.727525 +0.021300 0
-0.735159 +0.021523 0
-0.822247 +0.024073 0
-0.800985 +0.023450 0
-0.755056 +0.022106 0
-0.832924 +0.024386 0
-0.832924 +0.024386 0
-0.735161 +0.021523 0
-0.800986 +0.023451 0
-0.822248 +0.024073 0
-0.675979 +0.019791 0
-0.769323 +0.022524 0
-0.090508 +0.002650 0
-0.185871 +0.005442 0
-0.095255 +0.002789 0
-0.252076 +0.007380 0
-0.348344 +0.010198 0
-0.270568 +0.007921 0
-0.382677 +0.011204 0
-0.480492 +0.014067 0
-0.418478 +0.012252 0
-0.480492 +0.014067 0
-0.579009 +0.016952 0
-0.534072 +0.015636 0
-0.545638 +0.015975 0
-0.642362 +0.018806 0
-0.615146 +0.018010 0
-0.578237 +0.016929 0
-0.669680 +0.019606 0
-0.660562 +0.019339 0
-0.578238 +0.016929 0
-0.660563 +0.019339 0
-0.669680 +0.019606 0
-0.545641 +0.015975 0
-0.615149 +0.018010 0
-0.642364 +0.018807 0
-0.480499 +0.014068 0
-0.579014 +0.016952 0
-0.075687 +0.002216 0
-0.160422 +0.004697 0
-0.084047 +0.002461 0
-0.199144 +0.005830 0
-0.288006 +0.008432 0
-0.228456 +0.006689 0
-0.288006 +0.008432 0
-0.382677 +0.011204 0
-0.339295 +0.009934 0
-0.348344 +0.010198 0
-0.446935 +0.013085 0
-0.418478 +0.012252 0
-0.383717 +0.011234 0
-0.482334 +0.014121 0
-0.468193 +0.013707 0
-0.395413 +0.011577 0
-0.489397 +0.014328 0
-0.489396 +0.014328 0
-0.383719 +0.011234 0
-0.468195 +0.013707 0
-0.482335 +0.014121 0
-0.348348 +0.010199 0
-0.418484 +0.012252 0
-0.446939 +0.013085 0
-0.288018 +0.008432 0
-0.382686 +0.011204 0
-0.051314 +0.001502 0
-0.119055 +0.003486 0
-0.065035 +0.001904 0
-0.119055 +0.003486 0
-0.199144 +0.005830 0
-0.163176 +0.004777 0
-0.160422 +0.004697 0
-0.252076 +0.007380 0
-0.228456 +0.006689 0
-0.185871 +0.005442 0
-0.284253 +0.008322 0
-0.270568 +0.007921 0
-0.198226 +0.005803 0
-0.297809 +0.008719 0
-0.293303 +0.008587 0
-0.198227 +0.005803 0
-0.293304 +0.008587 0
-0.297809 +0.008719 0
-0.185872 +0.005442 0
-0.270571 +0.007922 0
-0.284254 +0.008322 0
-0.160426 +0.004697 0
-0.228463 +0.006689 0
-0.252080 +0.007380 0
-0.119090 +0.003487 0
-0.199159 +0.005831 0
-0.051314 +0.001502 0
-0.031455 +0.000921 0
-0.075687 +0.002216 0
-0.065035 +0.001904 0
-0.090508 +0.002650 0
-0.084047 +0.002461 0
-0.098381 +0.002880 0
-0.095255 +0.002789 0
-0.099934 +0.002926 0
-0.099934 +0.002926 0
-0.095255 +0.002789 0
-0.098381 +0.002880 0
-0.084045 +0.002461 0
-0.090508 +0.002650 0
-0.065032 +0.001904 0
-0.075683 +0.002216 0
-0.051223 +0.001500 0
-0.023381 +0.000685 0
-0.042657 +0.001249 0
-0.030883 +0.000904 0
-0.058640 +0.001717 0
-0.102236 +0.002993 0
-0.131258 +0.003843 0
-0.083359 +0.002441 0
-0.105359 +0.003085 0
-0.157823 +0.004621 0
-0.182090 +0.005331 0
-0.184285 +0.005395 0
-0.214573 +0.006282 0
-0.274295 +0.008031 0
-0.305581 +0.008947 0
-0.242680 +0.007105 0
-0.268685 +0.007866 0
-0.334795 +0.009802 0
-0.361958 +0.010597 0
-0.369617 +0.010821 0
-0.401516 +0.011755 0
-0.467754 +0.013694 0
-0.499837 +0.014634 0
-0.431354 +0.012629 0
-0.459116 +0.013442 0
-0.529812 +0.015511 0
-0.557635 +0.016326 0
-0.566360 +0.016581 0
-0.598190 +0.017513 0
-0.663249 +0.019418 0
-0.694393 +0.020330 0
-0.627822 +0.018381 0
-0.655195 +0.019182 0
-0.723224 +0.021174 0
-0.749668 +0.021948 0
-0.756398 +0.022145 0
-0.786440 +0.023025 0
-0.843963 +0.024709 0
-0.872509 +0.025545 0
-0.814038 +0.023833 0
-0.839111 +0.024567 0
-0.898473 +0.026305 0
-0.921769 +0.026987 0
-0.924280 +0.027060 0
-0.950967 +0.027842 0
-0.995882 +0.029157 0
-1.020378 +0.029874 0
-0.974931 +0.028543 0
-0.996087 +0.029163 0
-1.042015 +0.030507 0
-1.060714 +0.031055 0
-1.057503 +0.030961 0
-1.079511 +0.031605 0
-1.108080 +0.032441 0
-1.127344 +0.033005 0
-1.098536 +0.032162 0
-1.114506 +0.032629 0
-1.143517 +0.033479 0
-1.156534 +0.033860 0
-1.146761 +0.033574 0
-1.163067 +0.034051 0
-1.172905 +0.034339 0
-1.186084 +0.034725 0
-1.176192 +0.034435 0
-1.186084 +0.034725 0
-1.196017 +0.035016 0
-1.202661 +0.035210 0
-1.186084 +0.034725 0
-1.196017 +0.035016 0
-1.186084 +0.034725 0
-1.202661 +0.035210 0
-0.036599 +0.001072 0
-0.070693 +0.002070 0
-0.041069 +0.001202 0
-0.080124 +0.002346 0
-0.128733 +0.003769 0
-0.168109 +0.004922 0
-0.117053 +0.003427 0
-0.151785 +0.004444 0
-0.205533 +0.006017 0
-0.240943 +0.007054 0
-0.222249 +0.006507 0
-0.261944 +0.007669 0
-0.319590 +0.009357 0
-0.359456 +0.010524 0
-0.299782 +0.008777 0
-0.335694 +0.009828 0
-0.397494 +0.011637 0
-0.433619 +0.012695 0
-0.418661 +0.012257 0
-0.458461 +0.013422 0
-0.517394 +0.015148 0
-0.556844 +0.016303 0
-0.496410 +0.014533 0
-0.532407 +0.015587 0
-0.594376 +0.017402 0
-0.629879 +0.018441 0
-0.613810 +0.017971 0
-0.652597 +0.019106 0
-0.706055 +0.020671 0
-0.743856 +0.021778 0
-0.689369 +0.020183 0
-0.724008 +0.021197 0
-0.779524 +0.022822 0
-0.812932 +0.023800 0
-0.792427 +0.023200 0
-0.828918 +0.024268 0
-0.871394 +0.025512 0
-0.906258 +0.026533 0
-0.863142 +0.025270 0
-0.894969 +0.026202 0
-0.938711 +0.027483 0
-0.968625 +0.028358 0
-0.941605 +0.027567 0
-0.974535 +0.028532 0
-1.001897 +0.029333 0
-1.032603 +0.030232 0
-1.004909 +0.029421 0
-1.032603 +0.030232 0
-1.060611 +0.031052 0
-1.085805 +0.031789 0
-1.051297 +0.030779 0
-1.079510 +0.031605 0
-1.089029 +0.031884 0
-1.114507 +0.032629 0
-1.104895 +0.032348 0
-1.127344 +0.033005 0
-1.137041 +0.033289 0
-1.156534 +0.033860 0
-1.114507 +0.032629 0
-1.137041 +0.033289 0
-1.127344 +0.033005 0
-1.146761 +0.033574 0
-1.156534 +0.033860 0
-1.172905 +0.034339 0
-1.163067 +0.034051 0
-1.176192 +0.034435 0
-1.127344 +0.033005 0
-1.143517 +0.033479 0
-1.114506 +0.032629 0
-1.156534 +0.033860 0
-0.044541 +0.001304 0
-0.087502 +0.002562 0
-0.047133 +0.001380 0
-0.093090 +0.002725 0
-0.144157 +0.004221 0
-0.190143 +0.005567 0
-0.137696 +0.004031 0
-0.180795 +0.005293 0
-0.234807 +0.006874 0
-0.278002 +0.008139 0
-0.243409 +0.007126 0
-0.289352 +0.008471 0
-0.343075 +0.010044 0
-0.388841 +0.011384 0
-0.333974 +0.009778 0
-0.377123 +0.011041 0
-0.433252 +0.012684 0
-0.476153 +0.013940 0
-0.441341 +0.012921 0
-0.486750 +0.014251 0
-0.536457 +0.015706 0
-0.581297 +0.017019 0
-0.530739 +0.015538 0
-0.573144 +0.016780 0
-0.624622 +0.018287 0
-0.666261 +0.019506 0
-0.626785 +0.018350 0
-0.670822 +0.019640 0
-0.710831 +0.020811 0
-0.753811 +0.022069 0
-0.713221 +0.020881 0
-0.753811 +0.022069 0
-0.795013 +0.023276 0
-0.834262 +0.024425 0
-0.787261 +0.023049 0
-0.828918 +0.024268 0
-0.854909 +0.025029 0
-0.894969 +0.026202 0
-0.868641 +0.025431 0
-0.906258 +0.026533 0
-0.932930 +0.027313 0
-0.968625 +0.028358 0
-0.912783 +0.026724 0
-0.950966 +0.027841 0
-0.960061 +0.028108 0
-0.996088 +0.029163 0
-0.986884 +0.028893 0
-1.020377 +0.029874 0
-1.029690 +0.030146 0
-1.060715 +0.031055 0
-0.996088 +0.029163 0
-1.029690 +0.030146 0
-1.020377 +0.029874 0
-1.051297 +0.030779 0
-1.060715 +0.031055 0
-1.089029 +0.031884 0
-1.079510 +0.031605 0
-1.104895 +0.032348 0
-1.032603 +0.030232 0
-1.060611 +0.031052 0
-1.032603 +0.030232 0
-1.057503 +0.030961 0
-1.085805 +0.031789 0
-1.108080 +0.032441 0
-1.079511 +0.031605 0
-1.098536 +0.032162 0
-1.020378 +0.029874 0
-1.042015 +0.030507 0
-0.996087 +0.029163 0
-1.060714 +0.031055 0
-0.048902 +0.001432 0
-0.097018 +0.002840 0
-0.049877 +0.001460 0
-0.099353 +0.002909 0
-0.149965 +0.004391 0
-0.199376 +0.005837 0
-0.148229 +0.004340 0
-0.196310 +0.005747 0
-0.248160 +0.007265 0
-0.296122 +0.008670 0
-0.249108 +0.007293 0
-0.298373 +0.008735 0
-0.345668 +0.010120 0
-0.394684 +0.011555 0
-0.346964 +0.010158 0
-0.394685 +0.011555 0
-0.442957 +0.012968 0
-0.490281 +0.014354 0
-0.438106 +0.012826 0
-0.486750 +0.014251 0
-0.525019 +0.015371 0
-0.573143 +0.016780 0
-0.534550 +0.015650 0
-0.581297 +0.017019 0
-0.620295 +0.018160 0
-0.666261 +0.019506 0
-0.605167 +0.017718 0
-0.652596 +0.019106 0
-0.677480 +0.019835 0
-0.724007 +0.021197 0
-0.698897 +0.020462 0
-0.743855 +0.021778 0
-0.769229 +0.022521 0
-0.812932 +0.023800 0
-0.741053 +0.021696 0
-0.786439 +0.023025 0
-0.795133 +0.023279 0
-0.839112 +0.024567 0
-0.830328 +0.024310 0
-0.872508 +0.025544 0
-0.881391 +0.025805 0
-0.921770 +0.026987 0
-0.839112 +0.024567 0
-0.881391 +0.025805 0
-0.872508 +0.025544 0
-0.912783 +0.026724 0
-0.921770 +0.026987 0
-0.960061 +0.028108 0
-0.950966 +0.027841 0
-0.986884 +0.028893 0
-0.894969 +0.026202 0
-0.932930 +0.027313 0
-0.906258 +0.026533 0
-0.941605 +0.027567 0
-0.968625 +0.028358 0
-1.001897 +0.029333 0
-0.974535 +0.028532 0
-1.004909 +0.029421 0
-0.906258 +0.026533 0
-0.938711 +0.027483 0
-0.894969 +0.026202 0
-0.924280 +0.027060 0
-0.968625 +0.028358 0
-0.995882 +0.029157 0
-0.950967 +0.027842 0
-0.974931 +0.028543 0
-0.872509 +0.025545 0
-0.898473 +0.026305 0
-0.839111 +0.024567 0
-0.921769 +0.026987 0
-0.050071 +0.001466 0
-0.100128 +0.002931 0
-0.049487 +0.001449 0
-0.099353 +0.002909 0
-0.146486 +0.004289 0
-0.196309 +0.005747 0
-0.149387 +0.004374 0
-0.199376 +0.005837 0
-0.246261 +0.007210 0
-0.296122 +0.008670 0
-0.239593 +0.007015 0
-0.289351 +0.008471 0
-0.327447 +0.009587 0
-0.377122 +0.011041 0
-0.339178 +0.009930 0
-0.388841 +0.011384 0