# vtk DataFile Version 2.0
MyTitle
ASCII
DATASET UNSTRUCTURED_GRID
POINTS 3025 double
1.000000 0.000000 0.000000
0.500000 0.866025 0.000000
0.500000 -0.866025 0.000000
-1.000000 0.000000 0.000000
-0.500000 -0.866025 0.000000
-0.500000 0.866025 0.000000
0.000000 0.000000 0.000000
0.972222 0.048113 0.000000
0.944444 0.096225 0.000000
0.916667 0.144338 0.000000
0.888889 0.192450 0.000000
0.861111 0.240563 0.000000
0.833333 0.288675 0.000000
0.805556 0.336788 0.000000
0.777778 0.384900 0.000000
0.750000 0.433013 0.000000
0.722222 0.481125 0.000000
0.694444 0.529238 0.000000
0.666667 0.577350 0.000000
0.638889 0.625463 0.000000
0.611111 0.673575 0.000000
0.583333 0.721688 0.000000
0.555556 0.769800 0.000000
0.527778 0.817913 0.000000
0.986111 0.024056 0.000000
0.958333 0.072169 0.000000
0.930556 0.120281 0.000000
0.902778 0.168394 0.000000
0.875000 0.216506 0.000000
0.847222 0.264619 0.000000
0.819444 0.312731 0.000000
0.791667 0.360844 0.000000
0.763889 0.408956 0.000000
0.736111 0.457069 0.000000
0.708333 0.505181 0.000000
0.680556 0.553294 0.000000
0.652778 0.601407 0.000000
0.625000 0.649519 0.000000
0.597222 0.697632 0.000000
0.569444 0.745744 0.000000
0.541667 0.793857 0.000000
0.513889 0.841969 0.000000
0.472222 0.817913 0.000000
0.444444 0.769800 0.000000
0.416667 0.721688 0.000000
0.388889 0.673575 0.000000
0.361111 0.625463 0.000000
0.333333 0.577350 0.000000
0.305556 0.529238 0.000000
0.277778 0.481125 0.000000
0.250000 0.433013 0.000000
0.222222 0.384900 0.000000
0.194444 0.336788 0.000000
0.166667 0.288675 0.000000
0.138889 0.240563 0.000000
0.111111 0.192450 0.000000
0.083333 0.144338 0.000000
0.055556 0.096225 0.000000
0.027778 0.048113 0.000000
0.486111 0.841969 0.000000
0.458333 0.793857 0.000000
0.430556 0.745744 0.000000
0.402778 0.697632 0.000000
0.375000 0.649519 0.000000
0.347222 0.601407 0.000000
0.319444 0.553294 0.000000
0.291667 0.505181 0.000000
0.263889 0.457069 0.000000
0.236111 0.408956 0.000000
0.208333 0.360844 0.000000
0.180556 0.312731 0.000000
0.152778 0.264619 0.000000
0.125000 0.216506 0.000000
0.097222 0.168394 0.000000
0.069444 0.120281 0.000000
0.041667 0.072169 0.000000
0.013889 0.024056 0.000000
0.027778 -0.048113 0.000000
0.055556 -0.096225 0.000000
0.083333 -0.144338 0.000000
0.111111 -0.192450 0.000000
0.138889 -0.240563 0.000000
0.166667 -0.288675 0.000000
0.194444 -0.336788 0.000000
0.222222 -0.384900 0.000000
0.250000 -0.433013 0.000000
0.277778 -0.481125 0.000000
0.305556 -0.529238 0.000000
0.333333 -0.577350 0.000000
0.361111 -0.625463 0.000000
0.388889 -0.673575 0.000000
0.416667 -0.721688 0.000000
0.444444 -0.769800 0.000000
0.472222 -0.817913 0.000000
0.013889 -0.024056 0.000000
0.041667 -0.072169 0.000000
0.069444 -0.120281 0.000000
0.097222 -0.168394 0.000000
0.125000 -0.216506 0.000000
0.152778 -0.264619 0.000000
0.180556 -0.312731 0.000000
0.208333 -0.360844 0.000000
0.236111 -0.408956 0.000000
0.263889 -0.457069 0.000000
0.291667 -0.505181 0.000000
0.319444 -0.553294 0.000000
0.347222 -0.601407 0.000000
0.375000 -0.649519 0.000000
0.402778 -0.697632 0.000000
0.430556 -0.745744 0.000000
0.458333 -0.793857 0.000000
0.486111 -0.841969 0.000000
0.527778 -0.817913 0.000000
0.555556 -0.769800 0.000000
0.583333 -0.721688 0.000000
0.611111 -0.673575 0.000000
0.638889 -0.625463 0.000000
0.666667 -0.577350 0.000000
0.694444 -0.529238 0.000000
0.722222 -0.481125 0.000000
0.750000 -0.433013 0.000000
0.777778 -0.384900 0.000000
0.805556 -0.336788 0.000000
0.833333 -0.288675 0.000000
0.861111 -0.240563 0.000000
0.888889 -0.192450 0.000000
0.916667 -0.144338 0.000000
0.944444 -0.096225 0.000000
0.972222 -0.048113 0.000000
0.513889 -0.841969 0.000000
0.541667 -0.793857 0.000000
0.569444 -0.745744 0.000000
0.597222 -0.697632 0.000000
0.625000 -0.649519 0.000000
0.652778 -0.601407 0.000000
0.680556 -0.553294 0.000000
0.708333 -0.505181 0.000000
0.736111 -0.457069 0.000000
0.763889 -0.408956 0.000000
0.791667 -0.360844 0.000000
0.819444 -0.312731 0.000000
0.847222 -0.264619 0.000000
0.875000 -0.216506 0.000000
0.902778 -0.168394 0.000000
0.930556 -0.120281 0.000000
0.958333 -0.072169 0.000000
0.986111 -0.024056 0.000000
0.444444 0.866025 0.000000
0.388889 0.866025 0.000000
0.333333 0.866025 0.000000
0.277778 0.866025 0.000000
0.222222 0.866025 0.000000
0.166667 0.866025 0.000000
0.111111 0.866025 0.000000
0.055556 0.866025 0.000000
0.000000 0.866025 0.000000
-0.055556 0.866025 0.000000
-0.111111 0.866025 0.000000
-0.166667 0.866025 0.000000
-0.222222 0.866025 0.000000
-0.277778 0.866025 0.000000
-0.333333 0.866025 0.000000
-0.388889 0.866025 0.000000
-0.444444 0.866025 0.000000
0.472222 0.866025 0.000000
0.416667 0.866025 0.000000
0.361111 0.866025 0.000000
0.305556 0.866025 0.000000
0.250000 0.866025 0.000000
0.194444 0.866025 0.000000
0.138889 0.866025 0.000000
0.083333 0.866025 0.000000
0.027778 0.866025 0.000000
-0.027778 0.866025 0.000000
-0.083333 0.866025 0.000000
-0.138889 0.866025 0.000000
-0.194444 0.866025 0.000000
-0.250000 0.866025 0.000000
-0.305556 0.866025 0.000000
-0.361111 0.866025 0.000000
-0.416667 0.866025 0.000000
-0.472222 0.866025 0.000000
-0.527778 0.817913 0.000000
-0.555556 0.769800 0.000000
-0.583333 0.721688 0.000000
-0.611111 0.673575 0.000000
-0.638889 0.625463 0.000000
-0.666667 0.577350 0.000000
-0.694444 0.529238 0.000000
-0.722222 0.481125 0.000000
-0.750000 0.433013 0.000000
-0.777778 0.384900 0.000000
-0.805556 0.336788 0.000000
-0.833333 0.288675 0.000000
-0.861111 0.240563 0.000000
-0.888889 0.192450 0.000000
-0.916667 0.144338 0.000000
-0.944444 0.096225 0.000000
-0.972222 0.048113 0.000000
-0.513889 0.841969 0.000000
-0.541667 0.793857 0.000000
-0.569444 0.745744 0.000000
-0.597222 0.697632 0.000000
-0.625000 0.649519 0.000000
-0.652778 0.601407 0.000000
-0.680556 0.553294 0.000000
-0.708333 0.505181 0.000000
-0.736111 0.457069 0.000000
-0.763889 0.408956 0.000000
-0.791667 0.360844 0.000000
-0.819444 0.312731 0.000000
-0.847222 0.264619 0.000000
-0.875000 0.216506 0.000000
-0.902778 0.168394 0.000000
-0.930556 0.120281 0.000000
-0.958333 0.072169 0.000000
-0.986111 0.024056 0.000000
-0.944444 0.000000 0.000000
-0.888889 0.000000 0.000000
-0.833333 0.000000 0.000000
-0.777778 0.000000 0.000000
-0.722222 0.000000 0.000000
-0.666667 0.000000 0.000000
-0.611111 0.000000 0.000000
-0.555556 0.000000 0.000000
-0.500000 0.000000 0.000000
-0.444444 0.000000 0.000000
-0.388889 0.000000 0.000000
-0.333333 0.000000 0.000000
-0.277778 0.000000 0.000000
-0.222222 0.000000 0.000000
-0.166667 0.000000 0.000000
-0.111111 0.000000 0.000000
-0.055556 0.000000 0.000000
-0.972222 0.000000 0.000000
-0.916667 0.000000 0.000000
-0.861111 0.000000 0.000000
-0.805556 0.000000 0.000000
-0.750000 0.000000 0.000000
-0.694444 0.000000 0.000000
-0.638889 0.000000 0.000000
-0.583333 0.000000 0.000000
-0.527778 0.000000 0.000000
-0.472222 0.000000 0.000000
-0.416667 0.000000 0.000000
-0.361111 0.000000 0.000000
-0.305556 0.000000 0.000000
-0.250000 0.000000 0.000000
-0.194444 0.000000 0.000000
-0.138889 0.000000 0.000000
-0.083333 0.000000 0.000000
-0.027778 0.000000 0.000000
-0.972222 -0.048113 0.000000
-0.944444 -0.096225 0.000000
-0.916667 -0.144338 0.000000
-0.888889 -0.192450 0.000000
-0.861111 -0.240563 0.000000
-0.833333 -0.288675 0.000000
-0.805556 -0.336788 0.000000
-0.777778 -0.384900 0.000000
-0.750000 -0.433013 0.000000
-0.722222 -0.481125 0.000000
-0.694444 -0.529238 0.000000
-0.666667 -0.577350 0.000000
-0.638889 -0.625463 0.000000
-0.611111 -0.673575 0.000000
-0.583333 -0.721688 0.000000
-0.555556 -0.769800 0.000000
-0.527778 -0.817913 0.000000
-0.986111 -0.024056 0.000000
-0.958333 -0.072169 0.000000
-0.930556 -0.120281 0.000000
-0.902778 -0.168394 0.000000
-0.875000 -0.216506 0.000000
-0.847222 -0.264619 0.000000
-0.819444 -0.312731 0.000000
-0.791667 -0.360844 0.000000
-0.763889 -0.408956 0.000000
-0.736111 -0.457069 0.000000
-0.708333 -0.505181 0.000000
-0.680556 -0.553294 0.000000
-0.652778 -0.601407 0.000000
-0.625000 -0.649519 0.000000
-0.597222 -0.697632 0.000000
-0.569444 -0.745744 0.000000
-0.541667 -0.793857 0.000000
-0.513889 -0.841969 0.000000
-0.444444 -0.866025 0.000000
-0.388889 -0.866025 0.000000
-0.333333 -0.866025 0.000000
-0.277778 -0.866025 0.000000
-0.222222 -0.866025 0.000000
-0.166667 -0.866025 0.000000
-0.111111 -0.866025 0.000000
-0.055556 -0.866025 0.000000
-0.000000 -0.866025 0.000000
0.055556 -0.866025 0.000000
0.111111 -0.866025 0.000000
0.166667 -0.866025 0.000000
0.222222 -0.866025 0.000000
0.277778 -0.866025 0.000000
0.333333 -0.866025 0.000000
0.388889 -0.866025 0.000000
0.444444 -0.866025 0.000000
-0.472222 -0.866025 0.000000
-0.416667 -0.866025 0.000000
-0.361111 -0.866025 0.000000
-0.305556 -0.866025 0.000000
-0.250000 -0.866025 0.000000
-0.194444 -0.866025 0.000000
-0.138889 -0.866025 0.000000
-0.083333 -0.866025 0.000000
-0.027778 -0.866025 0.000000
0.027778 -0.866025 0.000000
0.083333 -0.866025 0.000000
0.138889 -0.866025 0.000000
0.194444 -0.866025 0.000000
0.250000 -0.866025 0.000000
0.305556 -0.866025 0.000000
0.361111 -0.866025 0.000000
0.416667 -0.866025 0.000000
0.472222 -0.866025 0.000000
0.500000 -0.673575 0.000000
0.444444 -0.577350 0.000000
0.388889 -0.481125 0.000000
0.333333 -0.384900 0.000000
0.277778 -0.288675 0.000000
0.222222 -0.192450 0.000000
0.166667 -0.096225 0.000000
0.111111 0.000000 0.000000
0.555556 -0.577350 0.000000
0.500000 -0.481125 0.000000
0.444444 -0.384900 0.000000
0.388889 -0.288675 0.000000
0.333333 -0.192450 0.000000
0.277778 -0.096225 0.000000
0.222222 0.000000 0.000000
0.166667 0.096225 0.000000
0.611111 -0.481125 0.000000
0.555556 -0.384900 0.000000
0.500000 -0.288675 0.000000
0.444444 -0.192450 0.000000
0.388889 -0.096225 0.000000
0.333333 0.000000 0.000000
0.277778 0.096225 0.000000
0.222222 0.192450 0.000000
0.666667 -0.384900 0.000000
0.611111 -0.288675 0.000000
0.555556 -0.192450 0.000000
0.500000 -0.096225 0.000000
0.444444 0.000000 0.000000
0.388889 0.096225 0.000000
0.333333 0.192450 0.000000
0.277778 0.288675 0.000000
0.722222 -0.288675 0.000000
[...]
POINT_DATA 3025
VECTORS sol double
+0.000000 +0.000000 0
+0.000000 +0.000000 0
+0.000000 +0.000000 0
+0.000000 +0.000000 0
+0.000000 +0.000000 0
+0.000000 +0.000000 0
-0.000000 +0.000000 0
+0.000000 +0.000000 0
+0.000000 +0.000000 0
+0.000000 +0.000000 0
+0.000000 +0.000000 0
+0.000000 +0.000000 0
+0.000000 +0.000000 0
+0.000000 +0.000000 0
+0.000000 +0.000000 0
+0.000000 +0.000000 0
+0.000000 +0.000000 0
+0.000000 +0.000000 0
+0.000000 +0.000000 0
+0.000000 +0.000000 0
+0.000000 +0.000000 0
+0.000000 +0.000000 0
+0.000000 +0.000000 0
+0.000000 +0.000000 0
+0.000000 +0.000000 0
+0.000000 +0.000000 0
+0.000000 +0.000000 0
+0.000000 +0.000000 0
+0.000000 +0.000000 0
+0.000000 +0.000000 0
+0.000000 +0.000000 0
+0.000000 +0.000000 0
+0.000000 +0.000000 0
+0.000000 +0.000000 0
+0.000000 +0.000000 0
+0.000000 +0.000000 0
+0.000000 +0.000000 0
+0.000000 +0.000000 0
+0.000000 +0.000000 0
+0.000000 +0.000000 0
+0.000000 +0.000000 0
+0.000000 +0.000000 0
+0.012855 -0.054287 0
+0.036077 -0.152351 0
+0.064376 -0.271854 0
+0.095188 -0.401971 0
+0.126158 -0.532754 0
+0.155204 -0.655412 0
+0.180451 -0.762025 0
+0.200280 -0.845761 0
+0.213379 -0.901077 0
+0.218789 -0.923924 0
+0.215940 -0.911894 0
+0.204673 -0.864314 0
+0.185242 -0.782257 0
+0.158297 -0.668471 0
+0.124854 -0.527248 0
+0.086244 -0.364199 0
+0.044043 -0.185991 0
+0.004648 -0.019627 0
+0.023641 -0.099832 0
+0.049759 -0.210129 0
+0.079630 -0.336271 0
+0.110794 -0.467873 0
+0.141051 -0.595643 0
+0.168416 -0.711202 0
+0.191137 -0.807152 0
+0.207743 -0.877278 0
+0.217093 -0.916761 0
+0.218418 -0.922358 0
+0.211353 -0.892522 0
+0.195945 -0.827456 0
+0.172650 -0.729085 0
+0.142308 -0.600951 0
+0.106097 -0.448036 0
+0.065481 -0.276518 0
+0.022132 -0.093460 0
-0.102956 -0.033671 0
-0.201605 -0.065933 0
-0.291862 -0.095451 0
-0.370037 -0.121018 0
-0.433023 -0.141617 0
-0.478447 -0.156472 0
-0.504785 -0.165086 0
-0.511444 -0.167264 0
-0.498797 -0.163128 0
-0.468177 -0.153113 0
-0.421824 -0.137954 0
-0.362808 -0.118653 0
-0.294910 -0.096448 0
-0.222514 -0.072771 0
-0.150487 -0.049215 0
-0.084335 -0.027581 0
-0.030051 -0.009828 0
-0.051735 -0.016920 0
-0.153069 -0.050060 0
-0.248013 -0.081111 0
-0.332660 -0.108794 0
-0.403590 -0.131991 0
-0.458044 -0.149800 0
-0.494061 -0.161579 0
-0.510577 -0.166980 0
-0.507479 -0.165967 0
-0.485623 -0.158819 0
-0.446805 -0.146124 0
-0.393691 -0.128753 0
-0.329722 -0.107833 0
-0.258994 -0.084702 0
-0.186145 -0.060877 0
-0.116318 -0.038041 0
-0.055263 -0.018073 0
-0.010865 -0.003553 0
+0.000000 +0.000000 0
+0.000000 +0.000000 0
+0.000000 +0.000000 0
+0.000000 +0.000000 0
+0.000000 +0.000000 0
+0.000000 +0.000000 0
+0.000000 +0.000000 0
+0.000000 +0.000000 0
+0.000000 +0.000000 0
+0.000000 +0.000000 0
+0.000000 +0.000000 0
+0.000000 +0.000000 0
+0.000000 +0.000000 0
+0.000000 +0.000000 0
+0.000000 +0.000000 0
+0.000000 +0.000000 0
+0.000000 +0.000000 0
+0.000000 +0.000000 0
+0.000000 +0.000000 0
+0.000000 +0.000000 0
+0.000000 +0.000000 0
+0.000000 +0.000000 0
+0.000000 +0.000000 0
+0.000000 +0.000000 0
+0.000000 +0.000000 0
+0.000000 +0.000000 0
+0.000000 +0.000000 0
+0.000000 +0.000000 0
+0.000000 +0.000000 0
+0.000000 +0.000000 0
+0.000000 +0.000000 0
+0.000000 +0.000000 0
+0.000000 +0.000000 0
+0.000000 +0.000000 0
+0.000000 +0.000000 0
+0.000000 +0.000000 0
+0.000000 +0.000000 0
+0.000000 +0.000000 0
+0.000000 +0.000000 0
+0.000000 +0.000000 0
+0.000000 +0.000000 0
+0.000000 +0.000000 0
+0.000000 +0.000000 0
+0.000000 +0.000000 0
+0.000000 +0.000000 0
+0.000000 +0.000000 0
+0.000000 +0.000000 0
+0.000000 +0.000000 0
+0.000000 +0.000000 0
+0.000000 +0.000000 0
+0.000000 +0.000000 0
+0.000000 +0.000000 0
+0.000000 +0.000000 0
+0.000000 +0.000000 0
+0.000000 +0.000000 0
+0.000000 +0.000000 0
+0.000000 +0.000000 0
+0.000000 +0.000000 0
+0.000000 +0.000000 0
+0.000000 +0.000000 0
+0.000000 +0.000000 0
+0.000000 +0.000000 0
+0.000000 +0.000000 0
+0.000000 +0.000000 0
+0.000000 +0.000000 0
+0.000000 +0.000000 0
+0.000000 +0.000000 0
+0.000000 +0.000000 0
+0.000000 +0.000000 0
+0.000000 +0.000000 0
+0.000000 +0.000000 0
+0.000000 +0.000000 0
+0.000000 +0.000000 0
+0.000000 +0.000000 0
+0.000000 +0.000000 0
+0.000000 +0.000000 0
+0.000000 +0.000000 0
+0.000000 +0.000000 0
+0.000000 +0.000000 0
+0.000000 +0.000000 0
+0.000000 +0.000000 0
+0.000000 +0.000000 0
+0.000000 +0.000000 0
+0.000000 +0.000000 0
+0.000000 +0.000000 0
+0.000000 +0.000000 0
+0.000000 +0.000000 0
+0.000000 +0.000000 0
+0.000000 +0.000000 0
+0.000000 +0.000000 0
+0.000000 +0.000000 0
+0.000000 +0.000000 0
+0.000000 +0.000000 0
+0.000000 +0.000000 0
+0.000000 +0.000000 0
+0.000000 +0.000000 0
+0.000000 +0.000000 0
+0.000000 +0.000000 0
+0.000000 +0.000000 0
+0.000000 +0.000000 0
+0.000000 +0.000000 0
+0.000000 +0.000000 0
+0.000000 +0.000000 0
+0.000000 +0.000000 0
+0.000000 +0.000000 0
+0.017196 +0.064115 0
+0.048258 +0.179932 0
+0.086111 +0.321070 0
+0.127325 +0.474742 0
+0.168751 +0.629202 0
+0.207603 +0.774065 0
+0.241373 +0.899979 0
+0.267897 +0.998874 0
+0.285419 +1.064205 0
+0.292655 +1.091188 0
+0.288845 +1.076980 0
+0.273774 +1.020787 0
+0.247782 +0.923873 0
+0.211740 +0.789489 0
+0.167007 +0.622699 0
+0.115361 +0.430132 0
+0.058913 +0.219662 0
+0.006217 +0.023180 0
+0.031622 +0.117905 0
+0.066559 +0.248170 0
+0.106515 +0.397148 0
+0.148200 +0.552575 0
+0.188671 +0.703476 0
+0.225275 +0.839956 0
+0.255668 +0.953276 0
+0.277880 +1.036097 0
+0.290387 +1.082728 0
+0.292159 +1.089338 0
+0.282709 +1.054101 0
+0.262099 +0.977255 0
+0.230940 +0.861076 0
+0.190353 +0.709745 0
+0.141917 +0.529147 0
+0.087588 +0.326578 0
+0.029604 +0.110379 0
+0.000000 +0.000000 0
+0.000000 +0.000000 0
+0.000000 +0.000000 0
+0.000000 +0.000000 0
+0.000000 +0.000000 0
+0.000000 +0.000000 0
+0.000000 +0.000000 0
+0.000000 +0.000000 0
+0.000000 +0.000000 0
+0.000000 +0.000000 0
+0.000000 +0.000000 0
+0.000000 +0.000000 0
+0.000000 +0.000000 0
+0.000000 +0.000000 0
+0.000000 +0.000000 0
+0.000000 +0.000000 0
+0.000000 +0.000000 0
+0.000000 +0.000000 0
+0.000000 +0.000000 0
+0.000000 +0.000000 0
+0.000000 +0.000000 0
+0.000000 +0.000000 0
+0.000000 +0.000000 0
+0.000000 +0.000000 0
+0.000000 +0.000000 0
+0.000000 +0.000000 0
+0.000000 +0.000000 0
+0.000000 +0.000000 0
+0.000000 +0.000000 0
+0.000000 +0.000000 0
+0.000000 +0.000000 0
+0.000000 +0.000000 0
+0.000000 +0.000000 0
+0.000000 +0.000000 0
+0.000000 +0.000000 0
+0.000000 +0.000000 0
+0.000000 +0.000000 0
+0.000000 +0.000000 0
+0.000000 +0.000000 0
+0.000000 +0.000000 0
+0.000000 +0.000000 0
+0.000000 +0.000000 0
+0.000000 +0.000000 0
+0.000000 +0.000000 0
+0.000000 +0.000000 0
+0.000000 +0.000000 0
+0.000000 +0.000000 0
+0.000000 +0.000000 0
+0.000000 +0.000000 0
+0.000000 +0.000000 0
+0.000000 +0.000000 0
+0.000000 +0.000000 0
+0.000000 +0.000000 0
+0.000000 +0.000000 0
+0.000000 +0.000000 0
+0.000000 +0.000000 0
+0.000000 +0.000000 0
+0.000000 +0.000000 0
+0.000000 +0.000000 0
+0.000000 +0.000000 0
+0.000000 +0.000000 0
+0.000000 +0.000000 0
+0.000000 +0.000000 0
+0.000000 +0.000000 0
+0.000000 +0.000000 0
+0.000000 +0.000000 0
+0.000000 +0.000000 0
+0.000000 +0.000000 0
+0.000000 +0.000000 0
+0.000000 +0.000000 0
-0.130895 -0.068648 0
-0.280035 -0.165071 0
-0.410780 -0.270353 0
-0.491781 -0.365817 0
-0.502265 -0.436129 0
-0.435420 -0.471469 0
-0.299353 -0.468502 0
-0.115357 -0.430116 0
-0.154998 -0.123675 0
-0.305481 -0.281658 0
-0.420380 -0.448281 0
-0.474806 -0.598629 0
-0.455394 -0.712713 0
-0.362861 -0.777877 0
-0.211737 -0.789477 0
-0.027500 -0.750193 0
-0.162212 -0.185699 0
-0.303321 -0.403601 0
-0.396918 -0.621195 0
-0.424886 -0.809431 0
-0.381344 -0.946761 0
-0.273772 -1.020781 0
-0.121473 -1.027999 0
+0.048141 -0.972529 0
-0.155751 -0.243762 0
-0.278748 -0.507368 0
-0.347940 -0.754176 0
-0.352232 -0.955103 0
-0.292655 -1.091187 0
-0.181918 -1.153404 0
-0.041834 -1.141239 0
+0.100747 -1.060964 0
-0.138654 -0.285176 0
-0.237600 -0.568291 0
-0.282048 -0.813952 0
-0.267898 -0.998877 0
-0.201869 -1.110907 0
-0.099670 -1.146416 0
+0.017021 -1.108255 0
+0.124336 -1.004231 0
-0.113908 -0.297180 0
-0.185627 -0.563708 0
-0.207604 -0.774065 0
-0.182280 -0.917330 0
-0.119956 -0.990410 0
-0.036463 -0.994695 0
+0.049376 -0.935037 0
+0.118636 -0.818929 0
-0.083825 -0.267398 0
-0.127321 -0.474725 0
-0.131724 -0.619562 0
-0.104280 -0.706436 0
-0.055457 -0.738739 0
+0.001985 -0.719956 0
+0.054390 -0.654553 0
+0.088949 -0.547409 0
-0.048206 -0.179739 0
-0.064873 -0.287035 0
-0.060375 -0.352649 0
-0.041354 -0.385997 0
-0.014309 -0.390323 0
+0.013713 -0.367991 0
+0.035671 -0.321245 0
+0.045149 -0.251063 0
-0.060867 -0.029766 0
-0.111037 -0.046181 0
-0.048392 -0.019161 0
-0.205523 -0.114533 0
-0.255555 -0.114972 0
-0.181877 -0.078822 0
-0.349861 -0.217818 0
-0.391811 -0.189552 0
-0.327062 -0.152549 0
-0.459095 -0.320380 0
-0.485384 -0.254552 0
-0.445729 -0.224111 0
-0.506615 -0.404877 0
-0.512086 -0.297713 0
-0.508104 -0.279457 0
-0.478344 -0.458534 0
-0.461340 -0.311575 0
-0.496466 -0.308554 0
-0.374979 -0.474729 0
-0.337672 -0.294352 0
-0.407761 -0.306736 0
-0.211600 -0.453341 0
-0.159593 -0.249775 0
-0.253816 -0.275059 0
-0.014662 -0.399951 0
-0.058906 -0.219636 0
-0.076087 -0.056063 0
-0.145298 -0.094725 0
-0.069831 -0.042122 0
-0.232809 -0.199940 0
-0.296501 -0.221365 0
-0.222293 -0.155385 0
-0.369155 -0.365521 0
-0.420110 -0.357846 0
-0.363719 -0.289801 0
-0.456301 -0.526892 0
-0.487970 -0.482235 0
-0.462386 -0.422803 0
-0.474625 -0.661183 0
-0.482957 -0.576565 0
-0.495109 -0.534049 0
-0.417661 -0.751885 0
-0.402065 -0.629250 0
-0.451603 -0.608554 0
-0.293238 -0.790361 0
-0.256774 -0.635986 0
-0.336232 -0.638350 0
-0.121861 -0.775781 0
-0.070721 -0.599318 0
-0.167003 -0.622684 0
+0.067252 -0.713931 0
+0.027966 -0.567039 0
-0.081930 -0.086818 0
-0.160502 -0.154434 0
-0.080035 -0.071159 0
-0.237185 -0.292674 0
-0.307548 -0.343363 0
-0.237602 -0.246397 0
-0.357445 -0.514393 0
-0.412350 -0.537522 0
-0.366814 -0.441604 0
-0.419787 -0.720536 0
-0.453366 -0.709539 0
-0.441746 -0.627805 0
-0.411894 -0.885453 0
-0.421005 -0.838177 0
-0.446419 -0.780295 0
-0.334598 -0.992100 0
-0.319513 -0.910499 0
-0.378102 -0.881844 0
-0.201635 -1.032642 0
-0.166055 -0.922146 0
-0.247780 -0.923865 0
-0.036935 -1.007593 0
+0.012620 -0.876354 0
-0.077954 -0.905975 0
+0.129903 -0.924215 0
+0.101658 -0.834591 0
-0.080380 -0.116961 0
-0.160503 -0.216001 0
-0.081980 -0.102342 0
-0.222848 -0.375497 0
-0.293480 -0.459313 0
-0.232084 -0.336500 0
-0.321035 -0.634914 0
-0.375090 -0.694859 0
-0.341886 -0.580095 0
-0.358425 -0.861804 0
-0.390710 -0.892940 0
-0.391599 -0.800113 0
-0.329886 -1.032033 0
-0.338024 -1.032749 0
-0.372542 -0.971044 0
-0.242490 -1.131741 0
-0.227363 -1.103216 0
-0.288844 -1.076977 0
-0.113929 -1.156366 0
-0.079598 -1.102182 0
-0.156501 -1.111464 0
+0.030888 -1.109006 0
+0.077825 -1.034831 0
-0.000256 -1.076235 0
+0.164396 -0.998677 0
+0.151019 -0.979471 0
-0.073007 -0.140232 0
-0.148340 -0.267361 0
-0.077324 -0.129866 0
-0.194246 -0.429470 0
-0.259872 -0.544679 0
-0.210046 -0.407270 0
-0.267157 -0.697548 0
-0.316565 -0.795084 0
-0.295819 -0.675195 0
-0.282117 -0.914996 0
-0.310846 -0.991580 0
-0.321521 -0.901319 0
-0.240566 -1.064403 0
-0.246788 -1.118138 0
-0.285419 -1.064207 0
-0.154034 -1.138181 0
-0.138922 -1.168303 0
-0.197084 -1.152852 0
-0.041648 -1.136156 0
-0.009338 -1.143309 0
-0.075273 -1.164872 0
+0.073316 -1.063833 0
+0.116322 -1.050359 0
+0.055601 -1.104689 0
+0.167424 -0.930985 0
+0.169808 -0.981902 0
-0.061338 -0.150107 0
-0.127064 -0.295626 0
-0.067620 -0.147245 0
-0.155766 -0.436294 0
-0.212641 -0.575464 0
-0.175991 -0.439853 0
-0.202893 -0.676843 0
-0.245414 -0.807726 0
-0.235919 -0.698951 0
-0.200367 -0.854402 0
-0.224654 -0.974538 0
-0.241374 -0.899981 0
-0.154856 -0.962645 0
-0.159208 -1.068231 0
-0.196647 -1.030712 0
-0.079717 -1.000922 0
-0.065238 -1.087915 0
-0.114568 -1.087170 0
+0.007379 -0.972441 0
+0.036677 -1.037710 0
-0.013906 -1.071129 0
+0.087183 -0.883497 0
+0.124938 -0.925549 0
+0.083806 -0.988762 0
+0.141833 -0.742509 0
+0.157794 -0.849477 0
-0.046621 -0.140142 0
-0.099449 -0.288314 0
-0.054310 -0.148023 0
-0.110744 -0.379123 0
-0.157070 -0.530791 0
-0.133947 -0.416748 0
-0.134044 -0.554651 0
-0.169457 -0.711489 0
-0.168751 -0.629200 0
-0.121394 -0.670013 0
-0.141834 -0.827406 0
-0.160075 -0.777541 0
-0.081784 -0.729212 0
-0.085099 -0.879388 0
-0.116256 -0.861257 0
-0.026961 -0.735477 0
-0.013937 -0.870332 0
-0.050307 -0.882225 0
+0.029658 -0.692771 0
+0.055169 -0.805201 0
+0.021910 -0.844395 0
+0.074624 -0.605920 0
+0.106265 -0.690451 0
+0.083881 -0.753599 0
+0.096145 -0.479400 0
+0.120778 -0.616595 0
-0.028889 -0.101893 0
-0.066924 -0.232293 0
-0.038235 -0.125339 0
-0.059688 -0.239791 0
-0.096559 -0.393821 0
-0.086110 -0.321066 0
-0.064825 -0.324192 0
-0.095116 -0.499139 0
-0.099240 -0.452711 0
-0.052289 -0.373108 0
-0.070508 -0.557686 0
-0.085182 -0.533949 0
-0.028403 -0.391639 0
-0.031691 -0.573573 0
-0.052262 -0.570765 0
+0.000028 -0.382342 0
+0.011175 -0.550022 0
-0.010103 -0.566514 0
+0.025870 -0.347551 0
+0.047627 -0.490524 0
+0.030835 -0.524549 0
+0.042342 -0.289155 0
+0.068058 -0.398015 0
+0.060387 -0.448295 0
+0.043358 -0.206164 0
+0.069686 -0.339490 0
-0.026445 -0.104426 0
-0.017070 -0.063645 0
-0.032480 -0.154795 0
-0.031006 -0.132830 0
-0.028347 -0.184293 0
-0.031444 -0.171716 0
-0.017609 -0.197635 0
-0.023597 -0.192861 0
-0.003675 -0.196442 0
-0.010818 -0.198778 0
+0.009854 -0.181923 0
+0.003366 -0.190777 0
+0.019461 -0.155069 0
+0.015356 -0.170002 0
+0.021900 -0.115528 0
+0.021778 -0.137047 0
+0.019301 -0.089304 0
-0.022172 -0.008506 0
-0.040405 -0.014469 0
-0.029053 -0.013632 0
-0.055176 -0.024255 0
-0.095024 -0.048191 0
-0.121724 -0.056933 0
-0.078307 -0.031821 0
-0.098633 -0.036392 0
-0.145773 -0.061926 0
-0.167218 -0.063212 0
-0.167933 -0.090855 0
-0.194609 -0.095959 0
-0.243088 -0.139368 0
-0.268833 -0.139124 0
-0.218678 -0.096583 0
-0.240134 -0.092792 0
-0.291873 -0.133702 0
-0.312172 -0.123215 0
-0.315810 -0.191317 0
-0.339609 -0.184174 0
-0.381681 -0.244255 0
-0.402532 -0.228898 0
-0.360546 -0.171236 0
-0.378577 -0.152682 0
-0.420353 -0.207241 0
-0.435112 -0.179541 0
-0.436722 -0.295812 0
-0.453709 -0.271211 0
-0.477553 -0.343788 0
-0.489905 -0.309232 0
-0.467525 -0.239936 0
-0.478157 -0.202332 0
-0.498995 -0.267768 0
-0.504837 -0.219841 0
-0.501537 -0.386240 0
-0.508670 -0.341349 0
-0.506887 -0.421551 0
-0.508432 -0.366284 0
-0.512515 -0.289468 0
-0.513124 -0.231139 0
-0.506745 -0.304091 0
-0.501916 -0.235617 0
-0.492740 -0.448484 0
-0.488566 -0.383124 0
-0.459187 -0.466206 0
-0.449404 -0.391347 0
-0.481300 -0.311050 0
-0.471075 -0.233005 0
-0.436759 -0.310125 0
-0.421425 -0.223373 0
-0.407263 -0.474305 0
-0.392220 -0.390822 0
-0.338889 -0.472774 0
-0.319157 -0.381792 0
-0.374630 -0.301454 0
-0.354703 -0.207119 0
-0.297270 -0.285518 0
-0.273472 -0.184944 0
-0.256777 -0.461991 0
-0.233121 -0.364845 0
-0.164294 -0.442672 0
-0.137641 -0.340866 0
-0.207770 -0.263100 0
-0.180995 -0.157807 0
-0.109803 -0.235235 0
-0.081072 -0.126879 0
-0.065302 -0.415823 0
-0.036694 -0.310990 0
+0.036034 -0.382690 0
-0.007447 -0.203168 0
-0.033987 -0.019616 0
-0.065735 -0.035726 0
-0.037465 -0.026420 0
-0.073273 -0.048913 0
-0.115432 -0.088592 0
-0.150705 -0.108897 0
-0.107111 -0.067252 0
-0.138728 -0.081269 0
-0.183877 -0.124209 0
-0.214730 -0.134393 0
-0.194298 -0.160916 0
-0.228302 -0.177300 0
-0.270038 -0.240318 0
-0.301895 -0.251161 0
-0.260016 -0.187883 0
-0.289240 -0.192567 0
-0.331236 -0.255451 0
-0.357881 -0.253141 0
-0.338673 -0.323523 0
-0.367455 -0.327393 0
-0.396520 -0.407231 0
-0.421337 -0.402943 0
-0.393490 -0.324041 0
-0.416621 -0.313483 0
-0.443194 -0.390866 0
-0.461965 -0.371089 0
-0.440407 -0.488280 0
-0.460467 -0.474933 0
-0.467833 -0.563772 0
-0.482497 -0.540770 0
-0.477397 -0.453346 0
-0.491107 -0.423694 0
-0.493922 -0.509206 0
-0.502058 -0.469347 0
-0.477098 -0.631179 0
-0.485918 -0.598242 0
-0.467380 -0.688420 0
-0.470125 -0.645576 0
-0.491463 -0.556555 0
-0.493728 -0.506482 0
-0.469640 -0.593933 0
-0.465970 -0.533956 0
-0.438772 -0.733907 0
-0.435439 -0.681478 0
-0.392273 -0.766561 0
-0.383091 -0.705145 0
-0.429010 -0.620343 0
-0.419578 -0.551065 0
-0.371037 -0.635252 0
-0.356248 -0.557543 0
-0.329734 -0.785810 0
-0.315157 -0.716251 0
-0.253765 -0.791567 0
-0.234450 -0.714925 0
-0.298013 -0.638578 0
-0.278486 -0.553543 0
-0.212950 -0.630657 0
-0.189485 -0.539599 0
-0.167610 -0.784183 0
-0.144387 -0.701700 0
-0.074987 -0.764406 0
-0.048825 -0.677469 0
-0.119425 -0.612195 0
-0.092974 -0.516573 0
-0.021415 -0.584212 0
+0.006967 -0.485608 0
+0.020087 -0.733312 0
+0.048130 -0.643418 0
+0.113491 -0.692257 0
+0.076899 -0.547994 0
-0.039737 -0.033860 0
-0.078335 -0.063495 0
-0.040947 -0.041659 0
-0.081228 -0.078953 0
-0.122509 -0.134986 0
-0.161811 -0.170087 0
-0.120452 -0.111482 0
-0.158252 -0.138900 0
-0.199716 -0.199551 0
-0.235892 -0.223050 0
-0.200591 -0.238427 0
-0.238016 -0.269692 0
-0.271570 -0.347897 0
-0.306183 -0.373850 0
-0.273701 -0.294483 0
-0.307344 -0.312504 0
-0.338722 -0.392549 0
-0.368915 -0.403737 0
-0.332067 -0.459258 0
-0.362961 -0.478643 0
-0.379155 -0.568517 0
-0.405501 -0.580331 0
-0.391468 -0.490065 0
-0.417353 -0.493318 0
-0.429189 -0.583558 0
-0.450023 -0.578055 0
-0.410522 -0.671995 0
-0.431624 -0.675506 0
-0.424600 -0.766453 0
-0.439927 -0.761204 0
-0.449850 -0.669902 0
-0.465049 -0.655116 0
-0.452230 -0.746419 0
-0.461406 -0.722117 0
-0.420640 -0.849180 0
-0.429857 -0.834980 0
-0.398749 -0.918040 0
-0.401736 -0.894953 0
-0.435981 -0.810942 0
-0.438961 -0.777177 0
-0.401647 -0.861851 0
-0.398483 -0.818945 0
-0.359881 -0.971485 0
-0.356739 -0.939811 0
-0.305787 -1.008548 0
-0.296834 -0.968802 0
-0.350626 -0.898079 0
-0.341597 -0.846601 0
-0.285105 -0.919093 0
-0.270705 -0.859837 0
-0.238923 -1.028808 0
-0.224685 -0.981700 0
-0.162336 -1.032350 0
-0.143522 -0.978761 0
-0.207949 -0.924864 0
-0.188866 -0.858814 0
-0.122562 -0.915816 0
-0.099646 -0.844124 0
-0.079513 -1.019709 0
-0.056987 -0.960667 0
+0.005779 -0.991816 0
+0.031040 -0.928470 0
-0.032725 -0.892774 0
-0.006953 -0.816723 0
+0.057582 -0.856901 0
+0.085154 -0.777877 0
+0.089674 -0.949934 0
+0.116622 -0.883532 0
+0.168383 -0.895606 0
+0.144371 -0.809645 0
-0.041203 -0.049477 0
-0.082176 -0.094637 0
-0.040606 -0.056938 0
-0.081377 -0.109808 0
-0.118904 -0.179432 0
-0.158487 -0.230295 0
-0.121897 -0.158026 0
-0.161764 -0.201062 0
-0.197375 -0.275674 0
-0.235189 -0.315036 0
-0.190529 -0.309313 0
-0.227951 -0.356748 0
-0.252365 -0.441701 0
-0.286682 -0.484490 0
-0.264245 -0.397890 0
-0.299062 -0.432215 0
-0.319463 -0.520213 0
-0.350387 -0.548367 0
-0.301722 -0.571940 0
-0.332067 -0.609097 0
-0.336495 -0.695804 0
-0.362115 -0.726573 0
-0.360502 -0.638458 0
-0.386741 -0.659553 0
-0.385497 -0.748870 0
-0.406398 -0.762272 0
-0.355272 -0.809629 0
-0.375560 -0.833477 0
-0.357401 -0.910390 0
-0.371924 -0.926981 0
-0.393344 -0.848239 0
-0.408427 -0.853557 0
-0.383748 -0.933954 0
-0.392729 -0.931028 0
-0.343017 -0.995720 0
-0.351535 -1.004903 0
-0.313025 -1.063901 0
-0.315499 -1.065688 0
-0.357240 -1.004030 0
-0.360042 -0.992912 0
-0.315135 -1.057096 0
-0.311899 -1.038035 0
-0.269044 -1.113824 0
-0.265643 -1.108379 0
-0.213327 -1.144937 0
-0.204424 -1.132568 0
-0.259471 -1.092361 0
-0.250547 -1.065786 0
-0.192904 -1.109574 0
-0.178841 -1.076081 0
-0.148649 -1.157199 0
-0.134805 -1.138350 0
-0.078178 -1.151015 0
-0.060122 -1.126260 0
-0.118583 -1.108974 0
-0.100104 -1.069304 0
-0.039999 -1.091228 0
-0.017971 -1.046257 0
-0.005330 -1.127191 0
+0.016073 -1.097224 0
+0.066392 -1.086873 0
+0.090178 -1.052498 0
+0.039175 -1.057381 0
+0.063780 -1.008099 0
+0.115254 -1.008796 0
+0.141401 -0.956287 0
+0.133549 -1.031498 0
+0.158701 -0.993619 0
+0.192927 -0.962742 0
+0.184714 -0.947096 0
-0.039253 -0.063639 0
-0.079024 -0.123672 0
-0.037241 -0.069169 0
-0.075313 -0.135410 0
-0.106931 -0.212454 0
-0.143760 -0.277088 0
-0.113818 -0.197983 0
-0.152357 -0.256180 0
-0.180532 -0.337326 0
-0.216861 -0.392433 0
-0.167859 -0.357717 0
-0.202489 -0.419708 0
-0.217568 -0.499837 0
-0.249118 -0.558375 0
-0.236586 -0.476572 0
-0.269784 -0.527554 0