# vtk DataFile Version 2.0
MyTitle
ASCII
DATASET UNSTRUCTURED_GRID
POINTS 3025 double
1.000000 0.000000 0.000000
0.500000 0.866025 0.000000
0.500000 -0.866025 0.000000
-1.000000 0.000000 0.000000
-0.500000 -0.866025 0.000000
-0.500000 0.866025 0.000000
0.000000 0.000000 0.000000
0.972222 0.048113 0.000000
0.944444 0.096225 0.000000
0.916667 0.144338 0.000000
0.888889 0.192450 0.000000
0.861111 0.240563 0.000000
0.833333 0.288675 0.000000
0.805556 0.336788 0.000000
0.777778 0.384900 0.000000
0.750000 0.433013 0.000000
0.722222 0.481125 0.000000
0.694444 0.529238 0.000000
0.666667 0.577350 0.000000
0.638889 0.625463 0.000000
0.611111 0.673575 0.000000
0.583333 0.721688 0.000000
0.555556 0.769800 0.000000
0.527778 0.817913 0.000000
0.986111 0.024056 0.000000
0.958333 0.072169 0.000000
0.930556 0.120281 0.000000
0.902778 0.168394 0.000000
0.875000 0.216506 0.000000
0.847222 0.264619 0.000000
0.819444 0.312731 0.000000
0.791667 0.360844 0.000000
0.763889 0.408956 0.000000
0.736111 0.457069 0.000000
0.708333 0.505181 0.000000
0.680556 0.553294 0.000000
0.652778 0.601407 0.000000
0.625000 0.649519 0.000000
0.597222 0.697632 0.000000
0.569444 0.745744 0.000000
0.541667 0.793857 0.000000
0.513889 0.841969 0.000000
0.472222 0.817913 0.000000
0.444444 0.769800 0.000000
0.416667 0.721688 0.000000
0.388889 0.673575 0.000000
0.361111 0.625463 0.000000
0.333333 0.577350 0.000000
0.305556 0.529238 0.000000
0.277778 0.481125 0.000000
0.250000 0.433013 0.000000
0.222222 0.384900 0.000000
0.194444 0.336788 0.000000
0.166667 0.288675 0.000000
0.138889 0.240563 0.000000
0.111111 0.192450 0.000000
0.083333 0.144338 0.000000
0.055556 0.096225 0.000000
0.027778 0.048113 0.000000
0.486111 0.841969 0.000000
0.458333 0.793857 0.000000
0.430556 0.745744 0.000000
0.402778 0.697632 0.000000
0.375000 0.649519 0.000000
0.347222 0.601407 0.000000
0.319444 0.553294 0.000000
0.291667 0.505181 0.000000
0.263889 0.457069 0.000000
0.236111 0.408956 0.000000
0.208333 0.360844 0.000000
0.180556 0.312731 0.000000
0.152778 0.264619 0.000000
0.125000 0.216506 0.000000
0.097222 0.168394 0.000000
0.069444 0.120281 0.000000
0.041667 0.072169 0.000000
0.013889 0.024056 0.000000
0.027778 -0.048113 0.000000
0.055556 -0.096225 0.000000
0.083333 -0.144338 0.000000
0.111111 -0.192450 0.000000
0.138889 -0.240563 0.000000
0.166667 -0.288675 0.000000
0.194444 -0.336788 0.000000
0.222222 -0.384900 0.000000
0.250000 -0.433013 0.000000
0.277778 -0.481125 0.000000
0.305556 -0.529238 0.000000
0.333333 -0.577350 0.000000
0.361111 -0.625463 0.000000
0.388889 -0.673575 0.000000
0.416667 -0.721688 0.000000
0.444444 -0.769800 0.000000
0.472222 -0.817913 0.000000
0.013889 -0.024056 0.000000
0.041667 -0.072169 0.000000
0.069444 -0.120281 0.000000
0.097222 -0.168394 0.000000
0.125000 -0.216506 0.000000
0.152778 -0.264619 0.000000
0.180556 -0.312731 0.000000
0.208333 -0.360844 0.000000
0.236111 -0.408956 0.000000
0.263889 -0.457069 0.000000
0.291667 -0.505181 0.000000
0.319444 -0.553294 0.000000
0.347222 -0.601407 0.000000
0.375000 -0.649519 0.000000
0.402778 -0.697632 0.000000
0.430556 -0.745744 0.000000
0.458333 -0.793857 0.000000
0.486111 -0.841969 0.000000
0.527778 -0.817913 0.000000
0.555556 -0.769800 0.000000
0.583333 -0.721688 0.000000
0.611111 -0.673575 0.000000
0.638889 -0.625463 0.000000
0.666667 -0.577350 0.000000
0.694444 -0.529238 0.000000
0.722222 -0.481125 0.000000
0.750000 -0.433013 0.000000
0.777778 -0.384900 0.000000
0.805556 -0.336788 0.000000
0.833333 -0.288675 0.000000
0.861111 -0.240563 0.000000
0.888889 -0.192450 0.000000
0.916667 -0.144338 0.000000
0.944444 -0.096225 0.000000
0.972222 -0.048113 0.000000
0.513889 -0.841969 0.000000
0.541667 -0.793857 0.000000
0.569444 -0.745744 0.000000
0.597222 -0.697632 0.000000
0.625000 -0.649519 0.000000
0.652778 -0.601407 0.000000
0.680556 -0.553294 0.000000
0.708333 -0.505181 0.000000
0.736111 -0.457069 0.000000
0.763889 -0.408956 0.000000
0.791667 -0.360844 0.000000
0.819444 -0.312731 0.000000
0.847222 -0.264619 0.000000
0.875000 -0.216506 0.000000
0.902778 -0.168394 0.000000
0.930556 -0.120281 0.000000
0.958333 -0.072169 0.000000
0.986111 -0.024056 0.000000
0.444444 0.866025 0.000000
0.388889 0.866025 0.000000
0.333333 0.866025 0.000000
0.277778 0.866025 0.000000
0.222222 0.866025 0.000000
0.166667 0.866025 0.000000
0.111111 0.866025 0.000000
0.055556 0.866025 0.000000
0.000000 0.866025 0.000000
-0.055556 0.866025 0.000000
-0.111111 0.866025 0.000000
-0.166667 0.866025 0.000000
-0.222222 0.866025 0.000000
-0.277778 0.866025 0.000000
-0.333333 0.866025 0.000000
-0.388889 0.866025 0.000000
-0.444444 0.866025 0.000000
0.472222 0.866025 0.000000
0.416667 0.866025 0.000000
0.361111 0.866025 0.000000
0.305556 0.866025 0.000000
0.250000 0.866025 0.000000
0.194444 0.866025 0.000000
0.138889 0.866025 0.000000
0.083333 0.866025 0.000000
0.027778 0.866025 0.000000
-0.027778 0.866025 0.000000
-0.083333 0.866025 0.000000
-0.138889 0.866025 0.000000
-0.194444 0.866025 0.000000
-0.250000 0.866025 0.000000
-0.305556 0.866025 0.000000
-0.361111 0.866025 0.000000
-0.416667 0.866025 0.000000
-0.472222 0.866025 0.000000
-0.527778 0.817913 0.000000
-0.555556 0.769800 0.000000
-0.583333 0.721688 0.000000
-0.611111 0.673575 0.000000
-0.638889 0.625463 0.000000
-0.666667 0.577350 0.000000
-0.694444 0.529238 0.000000
-0.722222 0.481125 0.000000
-0.750000 0.433013 0.000000
-0.777778 0.384900 0.000000
-0.805556 0.336788 0.000000
-0.833333 0.288675 0.000000
-0.861111 0.240563 0.000000
-0.888889 0.192450 0.000000
-0.916667 0.144338 0.000000
-0.944444 0.096225 0.000000
-0.972222 0.048113 0.000000
-0.513889 0.841969 0.000000
-0.541667 0.793857 0.000000
-0.569444 0.745744 0.000000
-0.597222 0.697632 0.000000
-0.625000 0.649519 0.000000
-0.652778 0.601407 0.000000
-0.680556 0.553294 0.000000
-0.708333 0.505181 0.000000
-0.736111 0.457069 0.000000
-0.763889 0.408956 0.000000
-0.791667 0.360844 0.000000
-0.819444 0.312731 0.000000
-0.847222 0.264619 0.000000
-0.875000 0.216506 0.000000
-0.902778 0.168394 0.000000
-0.930556 0.120281 0.000000
-0.958333 0.072169 0.000000
-0.986111 0.024056 0.000000
-0.944444 0.000000 0.000000
-0.888889 0.000000 0.000000
-0.833333 0.000000 0.000000
-0.777778 0.000000 0.000000
-0.722222 0.000000 0.000000
-0.666667 0.000000 0.000000
-0.611111 0.000000 0.000000
-0.555556 0.000000 0.000000
-0.500000 0.000000 0.000000
-0.444444 0.000000 0.000000
-0.388889 0.000000 0.000000
-0.333333 0.000000 0.000000
-0.277778 0.000000 0.000000
-0.222222 0.000000 0.000000
-0.166667 0.000000 0.000000
-0.111111 0.000000 0.000000
-0.055556 0.000000 0.000000
-0.972222 0.000000 0.000000
-0.916667 0.000000 0.000000
-0.861111 0.000000 0.000000
-0.805556 0.000000 0.000000
-0.750000 0.000000 0.000000
-0.694444 0.000000 0.000000
-0.638889 0.000000 0.000000
-0.583333 0.000000 0.000000
-0.527778 0.000000 0.000000
-0.472222 0.000000 0.000000
-0.416667 0.000000 0.000000
-0.361111 0.000000 0.000000
-0.305556 0.000000 0.000000
-0.250000 0.000000 0.000000
-0.194444 0.000000 0.000000
-0.138889 0.000000 0.000000
-0.083333 0.000000 0.000000
-0.027778 0.000000 0.000000
-0.972222 -0.048113 0.000000
-0.944444 -0.096225 0.000000
-0.916667 -0.144338 0.000000
-0.888889 -0.192450 0.000000
-0.861111 -0.240563 0.000000
-0.833333 -0.288675 0.000000
-0.805556 -0.336788 0.000000
-0.777778 -0.384900 0.000000
-0.750000 -0.433013 0.000000
-0.722222 -0.481125 0.000000
-0.694444 -0.529238 0.000000
-0.666667 -0.577350 0.000000
-0.638889 -0.625463 0.000000
-0.611111 -0.673575 0.000000
-0.583333 -0.721688 0.000000
-0.555556 -0.769800 0.000000
-0.527778 -0.817913 0.000000
-0.986111 -0.024056 0.000000
-0.958333 -0.072169 0.000000
-0.930556 -0.120281 0.000000
-0.902778 -0.168394 0.000000
-0.875000 -0.216506 0.000000
-0.847222 -0.264619 0.000000
-0.819444 -0.312731 0.000000
-0.791667 -0.360844 0.000000
-0.763889 -0.408956 0.000000
-0.736111 -0.457069 0.000000
-0.708333 -0.505181 0.000000
-0.680556 -0.553294 0.000000
-0.652778 -0.601407 0.000000
-0.625000 -0.649519 0.000000
-0.597222 -0.697632 0.000000
-0.569444 -0.745744 0.000000
-0.541667 -0.793857 0.000000
-0.513889 -0.841969 0.000000
-0.444444 -0.866025 0.000000
-0.388889 -0.866025 0.000000
-0.333333 -0.866025 0.000000
-0.277778 -0.866025 0.000000
-0.222222 -0.866025 0.000000
-0.166667 -0.866025 0.000000
-0.111111 -0.866025 0.000000
-0.055556 -0.866025 0.000000
-0.000000 -0.866025 0.000000
0.055556 -0.866025 0.000000
0.111111 -0.866025 0.000000
0.166667 -0.866025 0.000000
0.222222 -0.866025 0.000000
0.277778 -0.866025 0.000000
0.333333 -0.866025 0.000000
0.388889 -0.866025 0.000000
0.444444 -0.866025 0.000000
-0.472222 -0.866025 0.000000
-0.416667 -0.866025 0.000000
-0.361111 -0.866025 0.000000
-0.305556 -0.866025 0.000000
-0.250000 -0.866025 0.000000
-0.194444 -0.866025 0.000000
-0.138889 -0.866025 0.000000
-0.083333 -0.866025 0.000000
-0.027778 -0.866025 0.000000
0.027778 -0.866025 0.000000
0.083333 -0.866025 0.000000
0.138889 -0.866025 0.000000
0.194444 -0.866025 0.000000
0.250000 -0.866025 0.000000
0.305556 -0.866025 0.000000
0.361111 -0.866025 0.000000
0.416667 -0.866025 0.000000
0.472222 -0.866025 0.000000
0.500000 -0.673575 0.000000
0.444444 -0.577350 0.000000
0.388889 -0.481125 0.000000
0.333333 -0.384900 0.000000
0.277778 -0.288675 0.000000
0.222222 -0.192450 0.000000
0.166667 -0.096225 0.000000
0.111111 0.000000 0.000000
0.555556 -0.577350 0.000000
0.500000 -0.481125 0.000000
0.444444 -0.384900 0.000000
0.388889 -0.288675 0.000000
0.333333 -0.192450 0.000000
0.277778 -0.096225 0.000000
0.222222 0.000000 0.000000
0.166667 0.096225 0.000000
0.611111 -0.481125 0.000000
0.555556 -0.384900 0.000000
0.500000 -0.288675 0.000000
0.444444 -0.192450 0.000000
0.388889 -0.096225 0.000000
0.333333 0.000000 0.000000
0.277778 0.096225 0.000000
0.222222 0.192450 0.000000
0.666667 -0.384900 0.000000
0.611111 -0.288675 0.000000
0.555556 -0.192450 0.000000
0.500000 -0.096225 0.000000
0.444444 0.000000 0.000000
0.388889 0.096225 0.000000
0.333333 0.192450 0.000000
0.277778 0.288675 0.000000
0.722222 -0.288675 0.000000
[...]
POINT_DATA 3025
VECTORS sol double
+0.000000 +0.000000 0
+0.000000 +0.000000 0
+0.000000 +0.000000 0
+0.000000 +0.000000 0
+0.000000 +0.000000 0
+0.000000 +0.000000 0
-0.000000 +0.000000 0
+0.000000 +0.000000 0
+0.000000 +0.000000 0
+0.000000 +0.000000 0
+0.000000 +0.000000 0
+0.000000 +0.000000 0
+0.000000 +0.000000 0
+0.000000 +0.000000 0
+0.000000 +0.000000 0
+0.000000 +0.000000 0
+0.000000 +0.000000 0
+0.000000 +0.000000 0
+0.000000 +0.000000 0
+0.000000 +0.000000 0
+0.000000 +0.000000 0
+0.000000 +0.000000 0
+0.000000 +0.000000 0
+0.000000 +0.000000 0
+0.000000 +0.000000 0
+0.000000 +0.000000 0
+0.000000 +0.000000 0
+0.000000 +0.000000 0
+0.000000 +0.000000 0
+0.000000 +0.000000 0
+0.000000 +0.000000 0
+0.000000 +0.000000 0
+0.000000 +0.000000 0
+0.000000 +0.000000 0
+0.000000 +0.000000 0
+0.000000 +0.000000 0
+0.000000 +0.000000 0
+0.000000 +0.000000 0
+0.000000 +0.000000 0
+0.000000 +0.000000 0
+0.000000 +0.000000 0
+0.000000 +0.000000 0
+0.028604 +0.026602 0
+0.080274 +0.074656 0
+0.143240 +0.133216 0
+0.211798 +0.196977 0
+0.280707 +0.261065 0
+0.345335 +0.321170 0
+0.401510 +0.373414 0
+0.445630 +0.414447 0
+0.474776 +0.441553 0
+0.486814 +0.452749 0
+0.480475 +0.446854 0
+0.455406 +0.423538 0
+0.412170 +0.383328 0
+0.352216 +0.327570 0
+0.277806 +0.258366 0
+0.191896 +0.178468 0
+0.097998 +0.091141 0
+0.010341 +0.009618 0
+0.052601 +0.048920 0
+0.110717 +0.102969 0
+0.177180 +0.164782 0
+0.246521 +0.229271 0
+0.313843 +0.291882 0
+0.374731 +0.348509 0
+0.425287 +0.395527 0
+0.462236 +0.429891 0
+0.483040 +0.449239 0
+0.485989 +0.451981 0
+0.470268 +0.437361 0
+0.435985 +0.405477 0
+0.384153 +0.357272 0
+0.316640 +0.294483 0
+0.236069 +0.219550 0
+0.145697 +0.135502 0
+0.049244 +0.045798 0
-0.235061 -0.001498 0
-0.460286 -0.002933 0
-0.666353 -0.004246 0
-0.844835 -0.005383 0
-0.988640 -0.006300 0
-1.092348 -0.006961 0
-1.152480 -0.007344 0
-1.167684 -0.007441 0
-1.138810 -0.007257 0
-1.068899 -0.006811 0
-0.963071 -0.006137 0
-0.828330 -0.005278 0
-0.673312 -0.004290 0
-0.508023 -0.003237 0
-0.343578 -0.002189 0
-0.192546 -0.001227 0
-0.068610 -0.000437 0
-0.118117 -0.000753 0
-0.349473 -0.002227 0
-0.566242 -0.003608 0
-0.759501 -0.004840 0
-0.921440 -0.005872 0
-1.045765 -0.006664 0
-1.127997 -0.007188 0
-1.165705 -0.007428 0
-1.158632 -0.007383 0
-1.108732 -0.007065 0
-1.020104 -0.006500 0
-0.898840 -0.005728 0
-0.752792 -0.004797 0
-0.591313 -0.003768 0
-0.424989 -0.002708 0
-0.265567 -0.001692 0
-0.126171 -0.000804 0
-0.024805 -0.000158 0
+0.000000 +0.000000 0
+0.000000 +0.000000 0
+0.000000 +0.000000 0
+0.000000 +0.000000 0
+0.000000 +0.000000 0
+0.000000 +0.000000 0
+0.000000 +0.000000 0
+0.000000 +0.000000 0
+0.000000 +0.000000 0
+0.000000 +0.000000 0
+0.000000 +0.000000 0
+0.000000 +0.000000 0
+0.000000 +0.000000 0
+0.000000 +0.000000 0
+0.000000 +0.000000 0
+0.000000 +0.000000 0
+0.000000 +0.000000 0
+0.000000 +0.000000 0
+0.000000 +0.000000 0
+0.000000 +0.000000 0
+0.000000 +0.000000 0
+0.000000 +0.000000 0
+0.000000 +0.000000 0
+0.000000 +0.000000 0
+0.000000 +0.000000 0
+0.000000 +0.000000 0
+0.000000 +0.000000 0
+0.000000 +0.000000 0
+0.000000 +0.000000 0
+0.000000 +0.000000 0
+0.000000 +0.000000 0
+0.000000 +0.000000 0
+0.000000 +0.000000 0
+0.000000 +0.000000 0
+0.000000 +0.000000 0
+0.000000 +0.000000 0
+0.000000 +0.000000 0
+0.000000 +0.000000 0
+0.000000 +0.000000 0
+0.000000 +0.000000 0
+0.000000 +0.000000 0
+0.000000 +0.000000 0
+0.000000 +0.000000 0
+0.000000 +0.000000 0
+0.000000 +0.000000 0
+0.000000 +0.000000 0
+0.000000 +0.000000 0
+0.000000 +0.000000 0
+0.000000 +0.000000 0
+0.000000 +0.000000 0
+0.000000 +0.000000 0
+0.000000 +0.000000 0
+0.000000 +0.000000 0
+0.000000 +0.000000 0
+0.000000 +0.000000 0
+0.000000 +0.000000 0
+0.000000 +0.000000 0
+0.000000 +0.000000 0
+0.000000 +0.000000 0
+0.000000 +0.000000 0
+0.000000 +0.000000 0
+0.000000 +0.000000 0
+0.000000 +0.000000 0
+0.000000 +0.000000 0
+0.000000 +0.000000 0
+0.000000 +0.000000 0
+0.000000 +0.000000 0
+0.000000 +0.000000 0
+0.000000 +0.000000 0
+0.000000 +0.000000 0
+0.000000 +0.000000 0
+0.000000 +0.000000 0
+0.000000 +0.000000 0
+0.000000 +0.000000 0
+0.000000 +0.000000 0
+0.000000 +0.000000 0
+0.000000 +0.000000 0
+0.000000 +0.000000 0
+0.000000 +0.000000 0
+0.000000 +0.000000 0
+0.000000 +0.000000 0
+0.000000 +0.000000 0
+0.000000 +0.000000 0
+0.000000 +0.000000 0
+0.000000 +0.000000 0
+0.000000 +0.000000 0
+0.000000 +0.000000 0
+0.000000 +0.000000 0
+0.000000 +0.000000 0
+0.000000 +0.000000 0
+0.000000 +0.000000 0
+0.000000 +0.000000 0
+0.000000 +0.000000 0
+0.000000 +0.000000 0
+0.000000 +0.000000 0
+0.000000 +0.000000 0
+0.000000 +0.000000 0
+0.000000 +0.000000 0
+0.000000 +0.000000 0
+0.000000 +0.000000 0
+0.000000 +0.000000 0
+0.000000 +0.000000 0
+0.000000 +0.000000 0
+0.000000 +0.000000 0
+0.000000 +0.000000 0
+0.040006 -0.026165 0
+0.112273 -0.073429 0
+0.200338 -0.131027 0
+0.296226 -0.193740 0
+0.392604 -0.256774 0
+0.482995 -0.315892 0
+0.561561 -0.367277 0
+0.623269 -0.407635 0
+0.664034 -0.434296 0
+0.680870 -0.445308 0
+0.672005 -0.439510 0
+0.636942 -0.416578 0
+0.576471 -0.377028 0
+0.492619 -0.322186 0
+0.388547 -0.254120 0
+0.268390 -0.175535 0
+0.137063 -0.089643 0
+0.014464 -0.009460 0
+0.073570 -0.048117 0
+0.154851 -0.101277 0
+0.247809 -0.162074 0
+0.344791 -0.225503 0
+0.438949 -0.287085 0
+0.524109 -0.342781 0
+0.594817 -0.389027 0
+0.646495 -0.422826 0
+0.675592 -0.441856 0
+0.679716 -0.444553 0
+0.657729 -0.430173 0
+0.609780 -0.398813 0
+0.537287 -0.351400 0
+0.442861 -0.289643 0
+0.330173 -0.215942 0
+0.203776 -0.133275 0
+0.068873 -0.045045 0
+0.000000 +0.000000 0
+0.000000 +0.000000 0
+0.000000 +0.000000 0
+0.000000 +0.000000 0
+0.000000 +0.000000 0
+0.000000 +0.000000 0
+0.000000 +0.000000 0
+0.000000 +0.000000 0
+0.000000 +0.000000 0
+0.000000 +0.000000 0
+0.000000 +0.000000 0
+0.000000 +0.000000 0
+0.000000 +0.000000 0
+0.000000 +0.000000 0
+0.000000 +0.000000 0
+0.000000 +0.000000 0
+0.000000 +0.000000 0
+0.000000 +0.000000 0
+0.000000 +0.000000 0
+0.000000 +0.000000 0
+0.000000 +0.000000 0
+0.000000 +0.000000 0
+0.000000 +0.000000 0
+0.000000 +0.000000 0
+0.000000 +0.000000 0
+0.000000 +0.000000 0
+0.000000 +0.000000 0
+0.000000 +0.000000 0
+0.000000 +0.000000 0
+0.000000 +0.000000 0
+0.000000 +0.000000 0
+0.000000 +0.000000 0
+0.000000 +0.000000 0
+0.000000 +0.000000 0
+0.000000 +0.000000 0
+0.000000 +0.000000 0
+0.000000 +0.000000 0
+0.000000 +0.000000 0
+0.000000 +0.000000 0
+0.000000 +0.000000 0
+0.000000 +0.000000 0
+0.000000 +0.000000 0
+0.000000 +0.000000 0
+0.000000 +0.000000 0
+0.000000 +0.000000 0
+0.000000 +0.000000 0
+0.000000 +0.000000 0
+0.000000 +0.000000 0
+0.000000 +0.000000 0
+0.000000 +0.000000 0
+0.000000 +0.000000 0
+0.000000 +0.000000 0
+0.000000 +0.000000 0
+0.000000 +0.000000 0
+0.000000 +0.000000 0
+0.000000 +0.000000 0
+0.000000 +0.000000 0
+0.000000 +0.000000 0
+0.000000 +0.000000 0
+0.000000 +0.000000 0
+0.000000 +0.000000 0
+0.000000 +0.000000 0
+0.000000 +0.000000 0
+0.000000 +0.000000 0
+0.000000 +0.000000 0
+0.000000 +0.000000 0
+0.000000 +0.000000 0
+0.000000 +0.000000 0
+0.000000 +0.000000 0
+0.000000 +0.000000 0
-0.299179 +0.009765 0
-0.640290 +0.029113 0
-0.939593 +0.055447 0
-1.125408 +0.085418 0
-1.150197 +0.115470 0
-0.998311 +0.142275 0
-0.688186 +0.163011 0
-0.268380 +0.175528 0
-0.354810 +0.030705 0
-0.699767 +0.077637 0
-0.963741 +0.134244 0
-1.089693 +0.193312 0
-1.046911 +0.247982 0
-0.836865 +0.292424 0
-0.492612 +0.322182 0
-0.072245 +0.334332 0
-0.372041 +0.057546 0
-0.696402 +0.133058 0
-0.912479 +0.216140 0
-0.978619 +0.296611 0
-0.881143 +0.365694 0
-0.636939 +0.416575 0
-0.289951 +0.444545 0
+0.097297 +0.447013 0
-0.358059 +0.084815 0
-0.641724 +0.183907 0
-0.802558 +0.284141 0
-0.814906 +0.374185 0
-0.680870 +0.445308 0
-0.429301 +0.491372 0
-0.109903 +0.508606 0
+0.216054 +0.495485 0
-0.319623 +0.106292 0
-0.548729 +0.218096 0
-0.653157 +0.321827 0
-0.623271 +0.407636 0
-0.474226 +0.468943 0
-0.241774 +0.501560 0
+0.024645 +0.503259 0
+0.270536 +0.473692 0
-0.263382 +0.115728 0
-0.430228 +0.224458 0
-0.482995 +0.315892 0
-0.427113 +0.384700 0
-0.286014 +0.427815 0
-0.095791 +0.443297 0
+0.100590 +0.430281 0
+0.259912 +0.389083 0
-0.194444 +0.107159 0
-0.296215 +0.193733 0
-0.308099 +0.258428 0
-0.246664 +0.302114 0
-0.135812 +0.324623 0
-0.004666 +0.325460 0
+0.115598 +0.304426 0
+0.195723 +0.261646 0
-0.112152 +0.073351 0
-0.151506 +0.119102 0
-0.142093 +0.149464 0
-0.099170 +0.167610 0
-0.037592 +0.173951 0
+0.026554 +0.168413 0
+0.077193 +0.150864 0
+0.099688 +0.120707 0
-0.139093 +0.003567 0
-0.253636 +0.002841 0
-0.110526 +0.000802 0
-0.469836 +0.018379 0
-0.583862 +0.010460 0
-0.415493 +0.006088 0
-0.800092 +0.041606 0
-0.895332 +0.022035 0
-0.747300 +0.015829 0
-1.050338 +0.070201 0
-1.109408 +0.036208 0
-1.018650 +0.028894 0
-1.159712 +0.100651 0
-1.170813 +0.051367 0
-1.161503 +0.043769 0
-1.095969 +0.129469 0
-1.055343 +0.065860 0
-1.135353 +0.058797 0
-0.860612 +0.153553 0
-0.773291 +0.078147 0
-0.933176 +0.072368 0
-0.488010 +0.170402 0
-0.366891 +0.086908 0
-0.581941 +0.083039 0
-0.038519 +0.178242 0
-0.137047 +0.089632 0
-0.174113 +0.012974 0
-0.332334 +0.019205 0
-0.159679 +0.007693 0
-0.533108 +0.052523 0
-0.678531 +0.051865 0
-0.508576 +0.034107 0
-0.845947 +0.105179 0
-0.961971 +0.093446 0
-0.832592 +0.071865 0
-1.046607 +0.163917 0
-1.118207 +0.138611 0
-1.059145 +0.115922 0
-1.090080 +0.221591 0
-1.107987 +0.182025 0
-1.135139 +0.160853 0
-0.961420 +0.271795 0
-0.924311 +0.218942 0
-1.036941 +0.201558 0
-0.678358 +0.309358 0
-0.593288 +0.245557 0
-0.774399 +0.233733 0
-0.287615 +0.330578 0
-0.168819 +0.259183 0
-0.388537 +0.254114 0
+0.144151 +0.333328 0
+0.056495 +0.260617 0
-0.187821 +0.025915 0
-0.367745 +0.043703 0
-0.183303 +0.019151 0
-0.544265 +0.093692 0
-0.705264 +0.105168 0
-0.544625 +0.072725 0
-0.821159 +0.174311 0
-0.946579 +0.175849 0
-0.841582 +0.139919 0
-0.965864 +0.257292 0
-1.042248 +0.246878 0
-1.014725 +0.211851 0
-0.949981 +0.333051 0
-0.970142 +0.310222 0
-1.027319 +0.279959 0
-0.775190 +0.393754 0
-0.739771 +0.359350 0
-0.872925 +0.336904 0
-0.472694 +0.433636 0
-0.390199 +0.389507 0
-0.576465 +0.377024 0
-0.097033 +0.449045 0
+0.017575 +0.397816 0
-0.189216 +0.396498 0
+0.284245 +0.438459 0
+0.221020 +0.393402 0
-0.184673 +0.039780 0
-0.368534 +0.071507 0
-0.188133 +0.032918 0
-0.512650 +0.133422 0
-0.674685 +0.159814 0
-0.533200 +0.114312 0
-0.739722 +0.234646 0
-0.863675 +0.252948 0
-0.786540 +0.206507 0
-0.827828 +0.331046 0
-0.901801 +0.339869 0
-0.902642 +0.297803 0
-0.764961 +0.412553 0
-0.783517 +0.411556 0
-0.861394 +0.378089 0
-0.567063 +0.471761 0
-0.532227 +0.461333 0
-0.672003 +0.439509 0
-0.274397 +0.503740 0
-0.195466 +0.484840 0
-0.370843 +0.476555 0
+0.056238 +0.505848 0
+0.164152 +0.479965 0
-0.014319 +0.485995 0
+0.361902 +0.477683 0
+0.331661 +0.466839 0
-0.168168 +0.051485 0
-0.341470 +0.096675 0
-0.177874 +0.046103 0
-0.448156 +0.162437 0
-0.599184 +0.203819 0
-0.483881 +0.149848 0
-0.617736 +0.271674 0
-0.731580 +0.307706 0
-0.682771 +0.256929 0
-0.654604 +0.367448 0
-0.721054 +0.397373 0
-0.744231 +0.354878 0
-0.561821 +0.441663 0
-0.576685 +0.464921 0
-0.664035 +0.434297 0
-0.365562 +0.489021 0
-0.331505 +0.505076 0
-0.463857 +0.488662 0
-0.109414 +0.506340 0
-0.035872 +0.514813 0
-0.186410 +0.513853 0
+0.153505 +0.492331 0
+0.251686 +0.493223 0
+0.112613 +0.507908 0
+0.369666 +0.447604 0
+0.374451 +0.470985 0
-0.141702 +0.057838 0
-0.293345 +0.112892 0
-0.155980 +0.055526 0
-0.360549 +0.171762 0
-0.491941 +0.225385 0
-0.406687 +0.170088 0
-0.471019 +0.272750 0
-0.569592 +0.324959 0
-0.546566 +0.277376 0
-0.467529 +0.353347 0
-0.524411 +0.403660 0
-0.561563 +0.367278 0
-0.365193 +0.409614 0
-0.376459 +0.456591 0
-0.461302 +0.433573 0
-0.194444 +0.439091 0
-0.162559 +0.480727 0
-0.274969 +0.472387 0
+0.004405 +0.440359 0
+0.070339 +0.474589 0
-0.045362 +0.481474 0
+0.187408 +0.413139 0
+0.272913 +0.438256 0
+0.178369 +0.460130 0
+0.313752 +0.358334 0
+0.348761 +0.409232 0
-0.108036 +0.055725 0
-0.230317 +0.114070 0
-0.125657 +0.058037 0
-0.257216 +0.153248 0
-0.364728 +0.214226 0
-0.310577 +0.166475 0
-0.312557 +0.228737 0
-0.395262 +0.293821 0
-0.392603 +0.256773 0
-0.285201 +0.282888 0
-0.333792 +0.350652 0
-0.374724 +0.325173 0
-0.195687 +0.316049 0
-0.205160 +0.383332 0
-0.275932 +0.370089 0
-0.070830 +0.327773 0
-0.042870 +0.390788 0
-0.125907 +0.390258 0
+0.058746 +0.317673 0
+0.115449 +0.372586 0
+0.039155 +0.384891 0
+0.162329 +0.285746 0
+0.233358 +0.329054 0
+0.181540 +0.353940 0
+0.212990 +0.232100 0
+0.267375 +0.298055 0
-0.067138 +0.041329 0
-0.155481 +0.094048 0
-0.088734 +0.050401 0
-0.139086 +0.098608 0
-0.225079 +0.162187 0
-0.200336 +0.131025 0
-0.151869 +0.135890 0
-0.223135 +0.209983 0
-0.231941 +0.188347 0
-0.123926 +0.160015 0
-0.167802 +0.240416 0
-0.200938 +0.227316 0
-0.069727 +0.172259 0
-0.079543 +0.253888 0
-0.126386 +0.249283 0
-0.004815 +0.172673 0
+0.018447 +0.250208 0
-0.030255 +0.254203 0
+0.054521 +0.161154 0
+0.102278 +0.229252 0
+0.063577 +0.241893 0
+0.092804 +0.137454 0
+0.150020 +0.190789 0
+0.131897 +0.212251 0
+0.096179 +0.100140 0
+0.154478 +0.164622 0
-0.061599 +0.042869 0
-0.039713 +0.025973 0
-0.075996 +0.064637 0
-0.072356 +0.054956 0
-0.066954 +0.078629 0
-0.073851 +0.072447 0
-0.042652 +0.086397 0
-0.056237 +0.083269 0
-0.010882 +0.088119 0
-0.027191 +0.088015 0
+0.020134 +0.083757 0
+0.005235 +0.086702 0
+0.042372 +0.073188 0
+0.032825 +0.079266 0
+0.048434 +0.055727 0
+0.047882 +0.065425 0
+0.042847 +0.043462 0
-0.050638 +0.000244 0
-0.092266 -0.000021 0
-0.066385 +0.001443 0
-0.126052 +0.002002 0
-0.217169 +0.006347 0
-0.278129 +0.005963 0
-0.178862 +0.001666 0
-0.225243 +0.000432 0
-0.332997 +0.004316 0
-0.381885 +0.001417 0
-0.383867 +0.013785 0
-0.444725 +0.011762 0
-0.555761 +0.023500 0
-0.614429 +0.019213 0
-0.499587 +0.008139 0
-0.548434 +0.002946 0
-0.666867 +0.013027 0
-0.712993 +0.004997 0
-0.722154 +0.035162 0
-0.776299 +0.028075 0
-0.872946 +0.048382 0
-0.920267 +0.038064 0
-0.823847 +0.018835 0
-0.864703 +0.007531 0
-0.960604 +0.025392 0
-0.993884 +0.010488 0
-0.999037 +0.062736 0
-1.037436 +0.048870 0
-1.092701 +0.077778 0
-1.120410 +0.060168 0
-1.068522 +0.032504 0
-1.092273 +0.013797 0
-1.140595 +0.039968 0
-1.153299 +0.017376 0
-1.147901 +0.093058 0
-1.163583 +0.071628 0
-1.160544 +0.108137 0
-1.163361 +0.082927 0
-1.171684 +0.047574 0
-1.172329 +0.021133 0
-1.158721 +0.055114 0
-1.146843 +0.024974 0
-1.128647 +0.122595 0
-1.118300 +0.093755 0
-1.052408 +0.136043 0
-1.029158 +0.103823 0
-1.100822 +0.062385 0
-1.076525 +0.028798 0
-0.999304 +0.069194 0
-0.963252 +0.032504 0
-0.934180 +0.148124 0
-0.898832 +0.112863 0
-0.778341 +0.158526 0
-0.732211 +0.120639 0
-0.857605 +0.075358 0
-0.810989 +0.035989 0
-0.681103 +0.080712 0
-0.625585 +0.039153 0
-0.591076 +0.166978 0
-0.535925 +0.126945 0
-0.380066 +0.173259 0
-0.318025 +0.131607 0
-0.476852 +0.085109 0
-0.414489 +0.041902 0
-0.253237 +0.088419 0
-0.186377 +0.044146 0
-0.154127 +0.177194 0
-0.087592 +0.134492 0
+0.077235 +0.178672 0
-0.019563 +0.090544 0
-0.077704 +0.003345 0
-0.150262 +0.005469 0
-0.085717 +0.005853 0
-0.167609 +0.010201 0
-0.264194 +0.021281 0
-0.344836 +0.024728 0
-0.244959 +0.012993 0
-0.317189 +0.014194 0
-0.420629 +0.026261 0
-0.491070 +0.025855 0
-0.444846 +0.041147 0
-0.522548 +0.043030 0
-0.618467 +0.064718 0
-0.691205 +0.064446 0
-0.594958 +0.042663 0
-0.661618 +0.040037 0
-0.758127 +0.061623 0
-0.818820 +0.056257 0
-0.775944 +0.091158 0
-0.841586 +0.088236 0
-0.908843 +0.119576 0
-0.965343 +0.113613 0
-0.900875 +0.082498 0
-0.953455 +0.073977 0
-1.014999 +0.104613 0
-1.057525 +0.092636 0
-1.009892 +0.149058 0
-1.055436 +0.139776 0
-1.073357 +0.178701 0
-1.106483 +0.165934 0
-1.093743 +0.127280 0
-1.124610 +0.111665 0
-1.132116 +0.149826 0
-1.150150 +0.130505 0
-1.095332 +0.207640 0
-1.115013 +0.191334 0
-1.073916 +0.235067 0
-1.079624 +0.215273 0
-1.127116 +0.171608 0
-1.131640 +0.148628 0
-1.077859 +0.192029 0
-1.068731 +0.165539 0
-1.009302 +0.260251 0
-1.001035 +0.237114 0
-0.903750 +0.282541 0
-0.882041 +0.256295 0
-0.985604 +0.210548 0
-0.963226 +0.180791 0
-0.853677 +0.226687 0
-0.818984 +0.193992 0
-0.761472 +0.301381 0
-0.727364 +0.272333 0
-0.588417 +0.316306 0
-0.543420 +0.284828 0
-0.687304 +0.240036 0
-0.641716 +0.204802 0
-0.493348 +0.250260 0
-0.438712 +0.212944 0
-0.391981 +0.326950 0
-0.338005 +0.293468 0
-0.180647 +0.333046 0
-0.119915 +0.298029 0
-0.279975 +0.257096 0
-0.218475 +0.218204 0
-0.056260 +0.260361 0
+0.009679 +0.220435 0
+0.036417 +0.334429 0
+0.101473 +0.298381 0
+0.249803 +0.331042 0
+0.168253 +0.259955 0
-0.090990 +0.008845 0
-0.179332 +0.015965 0
-0.093846 +0.012170 0
-0.186122 +0.022477 0
-0.280913 +0.041085 0
-0.370927 +0.050560 0
-0.275926 +0.030804 0
-0.362418 +0.037053 0
-0.457687 +0.057716 0
-0.540430 +0.062460 0
-0.460178 +0.075131 0
-0.545865 +0.083178 0
-0.623330 +0.113053 0
-0.702544 +0.119157 0
-0.627506 +0.088585 0
-0.704407 +0.091265 0
-0.776937 +0.122323 0
-0.845888 +0.122477 0
-0.762621 +0.153529 0
-0.833273 +0.157271 0
-0.871326 +0.195232 0
-0.931519 +0.196292 0
-0.898385 +0.157804 0
-0.957416 +0.155074 0
-0.985544 +0.193906 0
-1.032951 +0.188041 0
-0.944131 +0.236874 0
-0.992266 +0.235036 0
-0.977419 +0.277248 0
-1.012281 +0.272391 0
-1.033731 +0.229548 0
-1.068180 +0.220404 0
-1.040130 +0.263718 0
-1.060731 +0.251254 0
-0.969450 +0.315251 0
-0.990274 +0.307342 0
-0.920441 +0.349900 0
-0.926953 +0.338989 0
-1.003924 +0.295493 0
-1.010283 +0.279761 0
-0.926328 +0.324055 0
-0.918569 +0.305191 0
-0.832546 +0.380342 0
-0.824980 +0.366548 0
-0.709741 +0.405857 0
-0.688831 +0.389359 0
-0.810517 +0.348693 0
-0.789284 +0.326910 0
-0.661468 +0.368813 0
-0.627895 +0.344389 0
-0.557621 +0.425855 0
-0.524573 +0.406890 0
-0.383129 +0.439880 0
-0.339571 +0.418731 0
-0.485708 +0.383938 0
-0.441374 +0.357205 0
-0.291000 +0.393705 0
-0.237860 +0.365047 0
-0.194220 +0.447609 0
-0.142131 +0.424599 0
+0.000512 +0.448850 0
+0.058888 +0.424341 0
-0.085973 +0.397875 0
-0.026269 +0.367711 0
+0.120288 +0.396326 0
+0.184133 +0.365111 0
+0.192237 +0.443547 0
+0.254497 +0.417931 0
+0.372304 +0.431782 0
+0.318678 +0.389065 0
-0.094531 +0.015659 0
-0.188482 +0.029406 0
-0.093265 +0.019126 0
-0.186854 +0.036387 0
-0.273265 +0.061741 0
-0.364120 +0.078290 0
-0.279813 +0.051589 0
-0.371217 +0.064556 0
-0.453323 +0.092474 0
-0.540003 +0.104115 0
-0.438153 +0.108776 0
-0.524039 +0.124127 0
-0.580761 +0.158531 0
-0.659514 +0.172287 0
-0.607277 +0.136818 0
-0.687059 +0.146671 0
-0.734676 +0.183102 0
-0.805510 +0.190799 0
-0.694905 +0.209340 0
-0.764535 +0.221197 0
-0.775732 +0.259637 0
-0.834511 +0.269376 0
-0.829710 +0.229844 0
-0.889776 +0.235114 0
-0.888081 +0.275652 0
-0.935885 +0.278313 0
-0.819976 +0.307995 0
-0.866515 +0.315473 0
-0.826114 +0.353153 0
-0.859423 +0.358290 0
-0.907231 +0.319254 0
-0.941673 +0.319209 0
-0.886459 +0.359521 0
-0.906887 +0.356742 0
-0.794424 +0.394023 0
-0.813952 +0.396788 0
-0.726943 +0.429680 0
-0.732603 +0.430086 0
-0.826942 +0.395469 0
-0.833186 +0.389993 0
-0.731664 +0.426265 0
-0.724047 +0.418181 0
-0.627350 +0.459361 0
-0.619531 +0.457454 0
-0.500771 +0.482452 0
-0.480324 +0.478311 0
-0.605259 +0.451222 0
-0.584585 +0.440668 0
-0.453778 +0.469795 0
-0.421302 +0.456951 0
-0.353531 +0.498483 0
-0.321741 +0.492217 0
-0.192854 +0.507124 0
-0.151390 +0.498874 0
-0.284398 +0.481582 0
-0.241778 +0.466665 0
-0.105084 +0.486318 0
-0.054307 +0.469583 0
-0.026533 +0.508184 0
+0.022626 +0.498123 0
+0.137431 +0.501612 0
+0.192077 +0.489947 0
+0.075781 +0.483878 0
+0.132483 +0.465614 0
+0.249782 +0.474280 0
+0.310040 +0.454808 0
+0.291184 +0.487500 0
+0.348987 +0.474474 0
+0.427381 +0.466083 0
+0.408863 +0.457685 0
-0.090267 +0.022372 0
-0.181670 +0.043030 0
-0.085753 +0.025195 0
-0.173363 +0.048933 0
-0.246400 +0.078597 0
-0.331157 +0.101811 0
-0.261912 +0.070945 0
-0.350481 +0.090974 0
-0.415726 +0.123049 0
-0.499220 +0.142042 0
-0.387105 +0.134314 0
-0.466817 +0.156691 0
-0.502204 +0.190432 0
-0.574852 +0.211749 0
-0.545248 +0.176839 0
-0.621554 +0.194477 0