# vtk DataFile Version 2.0
MyTitle
ASCII
DATASET UNSTRUCTURED_GRID
POINTS 3025 double
1.000000 0.000000 0.000000
0.500000 0.866025 0.000000
0.500000 -0.866025 0.000000
-1.000000 0.000000 0.000000
-0.500000 -0.866025 0.000000
-0.500000 0.866025 0.000000
0.000000 0.000000 0.000000
0.972222 0.048113 0.000000
0.944444 0.096225 0.000000
0.916667 0.144338 0.000000
0.888889 0.192450 0.000000
0.861111 0.240563 0.000000
0.833333 0.288675 0.000000
0.805556 0.336788 0.000000
0.777778 0.384900 0.000000
0.750000 0.433013 0.000000
0.722222 0.481125 0.000000
0.694444 0.529238 0.000000
0.666667 0.577350 0.000000
0.638889 0.625463 0.000000
0.611111 0.673575 0.000000
0.583333 0.721688 0.000000
0.555556 0.769800 0.000000
0.527778 0.817913 0.000000
0.986111 0.024056 0.000000
0.958333 0.072169 0.000000
0.930556 0.120281 0.000000
0.902778 0.168394 0.000000
0.875000 0.216506 0.000000
0.847222 0.264619 0.000000
0.819444 0.312731 0.000000
0.791667 0.360844 0.000000
0.763889 0.408956 0.000000
0.736111 0.457069 0.000000
0.708333 0.505181 0.000000
0.680556 0.553294 0.000000
0.652778 0.601407 0.000000
0.625000 0.649519 0.000000
0.597222 0.697632 0.000000
0.569444 0.745744 0.000000
0.541667 0.793857 0.000000
0.513889 0.841969 0.000000
0.472222 0.817913 0.000000
0.444444 0.769800 0.000000
0.416667 0.721688 0.000000
0.388889 0.673575 0.000000
0.361111 0.625463 0.000000
0.333333 0.577350 0.000000
0.305556 0.529238 0.000000
0.277778 0.481125 0.000000
0.250000 0.433013 0.000000
0.222222 0.384900 0.000000
0.194444 0.336788 0.000000
0.166667 0.288675 0.000000
0.138889 0.240563 0.000000
0.111111 0.192450 0.000000
0.083333 0.144338 0.000000
0.055556 0.096225 0.000000
0.027778 0.048113 0.000000
0.486111 0.841969 0.000000
0.458333 0.793857 0.000000
0.430556 0.745744 0.000000
0.402778 0.697632 0.000000
0.375000 0.649519 0.000000
0.347222 0.601407 0.000000
0.319444 0.553294 0.000000
0.291667 0.505181 0.000000
0.263889 0.457069 0.000000
0.236111 0.408956 0.000000
0.208333 0.360844 0.000000
0.180556 0.312731 0.000000
0.152778 0.264619 0.000000
0.125000 0.216506 0.000000
0.097222 0.168394 0.000000
0.069444 0.120281 0.000000
0.041667 0.072169 0.000000
0.013889 0.024056 0.000000
0.027778 -0.048113 0.000000
0.055556 -0.096225 0.000000
0.083333 -0.144338 0.000000
0.111111 -0.192450 0.000000
0.138889 -0.240563 0.000000
0.166667 -0.288675 0.000000
0.194444 -0.336788 0.000000
0.222222 -0.384900 0.000000
0.250000 -0.433013 0.000000
0.277778 -0.481125 0.000000
0.305556 -0.529238 0.000000
0.333333 -0.577350 0.000000
0.361111 -0.625463 0.000000
0.388889 -0.673575 0.000000
0.416667 -0.721688 0.000000
0.444444 -0.769800 0.000000
0.472222 -0.817913 0.000000
0.013889 -0.024056 0.000000
0.041667 -0.072169 0.000000
0.069444 -0.120281 0.000000
0.097222 -0.168394 0.000000
0.125000 -0.216506 0.000000
0.152778 -0.264619 0.000000
0.180556 -0.312731 0.000000
0.208333 -0.360844 0.000000
0.236111 -0.408956 0.000000
0.263889 -0.457069 0.000000
0.291667 -0.505181 0.000000
0.319444 -0.553294 0.000000
0.347222 -0.601407 0.000000
0.375000 -0.649519 0.000000
0.402778 -0.697632 0.000000
0.430556 -0.745744 0.000000
0.458333 -0.793857 0.000000
0.486111 -0.841969 0.000000
0.527778 -0.817913 0.000000
0.555556 -0.769800 0.000000
0.583333 -0.721688 0.000000
0.611111 -0.673575 0.000000
0.638889 -0.625463 0.000000
0.666667 -0.577350 0.000000
0.694444 -0.529238 0.000000
0.722222 -0.481125 0.000000
0.750000 -0.433013 0.000000
0.777778 -0.384900 0.000000
0.805556 -0.336788 0.000000
0.833333 -0.288675 0.000000
0.861111 -0.240563 0.000000
0.888889 -0.192450 0.000000
0.916667 -0.144338 0.000000
0.944444 -0.096225 0.000000
0.972222 -0.048113 0.000000
0.513889 -0.841969 0.000000
0.541667 -0.793857 0.000000
0.569444 -0.745744 0.000000
0.597222 -0.697632 0.000000
0.625000 -0.649519 0.000000
0.652778 -0.601407 0.000000
0.680556 -0.553294 0.000000
0.708333 -0.505181 0.000000
0.736111 -0.457069 0.000000
0.763889 -0.408956 0.000000
0.791667 -0.360844 0.000000
0.819444 -0.312731 0.000000
0.847222 -0.264619 0.000000
0.875000 -0.216506 0.000000
0.902778 -0.168394 0.000000
0.930556 -0.120281 0.000000
0.958333 -0.072169 0.000000
0.986111 -0.024056 0.000000
0.444444 0.866025 0.000000
0.388889 0.866025 0.000000
0.333333 0.866025 0.000000
0.277778 0.866025 0.000000
0.222222 0.866025 0.000000
0.166667 0.866025 0.000000
0.111111 0.866025 0.000000
0.055556 0.866025 0.000000
0.000000 0.866025 0.000000
-0.055556 0.866025 0.000000
-0.111111 0.866025 0.000000
-0.166667 0.866025 0.000000
-0.222222 0.866025 0.000000
-0.277778 0.866025 0.000000
-0.333333 0.866025 0.000000
-0.388889 0.866025 0.000000
-0.444444 0.866025 0.000000
0.472222 0.866025 0.000000
0.416667 0.866025 0.000000
0.361111 0.866025 0.000000
0.305556 0.866025 0.000000
0.250000 0.866025 0.000000
0.194444 0.866025 0.000000
0.138889 0.866025 0.000000
0.083333 0.866025 0.000000
0.027778 0.866025 0.000000
-0.027778 0.866025 0.000000
-0.083333 0.866025 0.000000
-0.138889 0.866025 0.000000
-0.194444 0.866025 0.000000
-0.250000 0.866025 0.000000
-0.305556 0.866025 0.000000
-0.361111 0.866025 0.000000
-0.416667 0.866025 0.000000
-0.472222 0.866025 0.000000
-0.527778 0.817913 0.000000
-0.555556 0.769800 0.000000
-0.583333 0.721688 0.000000
-0.611111 0.673575 0.000000
-0.638889 0.625463 0.000000
-0.666667 0.577350 0.000000
-0.694444 0.529238 0.000000
-0.722222 0.481125 0.000000
-0.750000 0.433013 0.000000
-0.777778 0.384900 0.000000
-0.805556 0.336788 0.000000
-0.833333 0.288675 0.000000
-0.861111 0.240563 0.000000
-0.888889 0.192450 0.000000
-0.916667 0.144338 0.000000
-0.944444 0.096225 0.000000
-0.972222 0.048113 0.000000
-0.513889 0.841969 0.000000
-0.541667 0.793857 0.000000
-0.569444 0.745744 0.000000
-0.597222 0.697632 0.000000
-0.625000 0.649519 0.000000
-0.652778 0.601407 0.000000
-0.680556 0.553294 0.000000
-0.708333 0.505181 0.000000
-0.736111 0.457069 0.000000
-0.763889 0.408956 0.000000
-0.791667 0.360844 0.000000
-0.819444 0.312731 0.000000
-0.847222 0.264619 0.000000
-0.875000 0.216506 0.000000
-0.902778 0.168394 0.000000
-0.930556 0.120281 0.000000
-0.958333 0.072169 0.000000
-0.986111 0.024056 0.000000
-0.944444 0.000000 0.000000
-0.888889 0.000000 0.000000
-0.833333 0.000000 0.000000
-0.777778 0.000000 0.000000
-0.722222 0.000000 0.000000
-0.666667 0.000000 0.000000
-0.611111 0.000000 0.000000
-0.555556 0.000000 0.000000
-0.500000 0.000000 0.000000
-0.444444 0.000000 0.000000
-0.388889 0.000000 0.000000
-0.333333 0.000000 0.000000
-0.277778 0.000000 0.000000
-0.222222 0.000000 0.000000
-0.166667 0.000000 0.000000
-0.111111 0.000000 0.000000
-0.055556 0.000000 0.000000
-0.972222 0.000000 0.000000
-0.916667 0.000000 0.000000
-0.861111 0.000000 0.000000
-0.805556 0.000000 0.000000
-0.750000 0.000000 0.000000
-0.694444 0.000000 0.000000
-0.638889 0.000000 0.000000
-0.583333 0.000000 0.000000
-0.527778 0.000000 0.000000
-0.472222 0.000000 0.000000
-0.416667 0.000000 0.000000
-0.361111 0.000000 0.000000
-0.305556 0.000000 0.000000
-0.250000 0.000000 0.000000
-0.194444 0.000000 0.000000
-0.138889 0.000000 0.000000
-0.083333 0.000000 0.000000
-0.027778 0.000000 0.000000
-0.972222 -0.048113 0.000000
-0.944444 -0.096225 0.000000
-0.916667 -0.144338 0.000000
-0.888889 -0.192450 0.000000
-0.861111 -0.240563 0.000000
-0.833333 -0.288675 0.000000
-0.805556 -0.336788 0.000000
-0.777778 -0.384900 0.000000
-0.750000 -0.433013 0.000000
-0.722222 -0.481125 0.000000
-0.694444 -0.529238 0.000000
-0.666667 -0.577350 0.000000
-0.638889 -0.625463 0.000000
-0.611111 -0.673575 0.000000
-0.583333 -0.721688 0.000000
-0.555556 -0.769800 0.000000
-0.527778 -0.817913 0.000000
-0.986111 -0.024056 0.000000
-0.958333 -0.072169 0.000000
-0.930556 -0.120281 0.000000
-0.902778 -0.168394 0.000000
-0.875000 -0.216506 0.000000
-0.847222 -0.264619 0.000000
-0.819444 -0.312731 0.000000
-0.791667 -0.360844 0.000000
-0.763889 -0.408956 0.000000
-0.736111 -0.457069 0.000000
-0.708333 -0.505181 0.000000
-0.680556 -0.553294 0.000000
-0.652778 -0.601407 0.000000
-0.625000 -0.649519 0.000000
-0.597222 -0.697632 0.000000
-0.569444 -0.745744 0.000000
-0.541667 -0.793857 0.000000
-0.513889 -0.841969 0.000000
-0.444444 -0.866025 0.000000
-0.388889 -0.866025 0.000000
-0.333333 -0.866025 0.000000
-0.277778 -0.866025 0.000000
-0.222222 -0.866025 0.000000
-0.166667 -0.866025 0.000000
-0.111111 -0.866025 0.000000
-0.055556 -0.866025 0.000000
-0.000000 -0.866025 0.000000
0.055556 -0.866025 0.000000
0.111111 -0.866025 0.000000
0.166667 -0.866025 0.000000
0.222222 -0.866025 0.000000
0.277778 -0.866025 0.000000
0.333333 -0.866025 0.000000
0.388889 -0.866025 0.000000
0.444444 -0.866025 0.000000
-0.472222 -0.866025 0.000000
-0.416667 -0.866025 0.000000
-0.361111 -0.866025 0.000000
-0.305556 -0.866025 0.000000
-0.250000 -0.866025 0.000000
-0.194444 -0.866025 0.000000
-0.138889 -0.866025 0.000000
-0.083333 -0.866025 0.000000
-0.027778 -0.866025 0.000000
0.027778 -0.866025 0.000000
0.083333 -0.866025 0.000000
0.138889 -0.866025 0.000000
0.194444 -0.866025 0.000000
0.250000 -0.866025 0.000000
0.305556 -0.866025 0.000000
0.361111 -0.866025 0.000000
0.416667 -0.866025 0.000000
0.472222 -0.866025 0.000000
0.500000 -0.673575 0.000000
0.444444 -0.577350 0.000000
0.388889 -0.481125 0.000000
0.333333 -0.384900 0.000000
0.277778 -0.288675 0.000000
0.222222 -0.192450 0.000000
0.166667 -0.096225 0.000000
0.111111 0.000000 0.000000
0.555556 -0.577350 0.000000
0.500000 -0.481125 0.000000
0.444444 -0.384900 0.000000
0.388889 -0.288675 0.000000
0.333333 -0.192450 0.000000
0.277778 -0.096225 0.000000
0.222222 0.000000 0.000000
0.166667 0.096225 0.000000
0.611111 -0.481125 0.000000
0.555556 -0.384900 0.000000
0.500000 -0.288675 0.000000
0.444444 -0.192450 0.000000
0.388889 -0.096225 0.000000
0.333333 0.000000 0.000000
0.277778 0.096225 0.000000
0.222222 0.192450 0.000000
0.666667 -0.384900 0.000000
0.611111 -0.288675 0.000000
0.555556 -0.192450 0.000000
0.500000 -0.096225 0.000000
0.444444 0.000000 0.000000
0.388889 0.096225 0.000000
0.333333 0.192450 0.000000
0.277778 0.288675 0.000000
0.722222 -0.288675 0.000000
[...]
POINT_DATA 3025
VECTORS sol double
+0.000000 +0.000000 0
+0.000000 +0.000000 0
+0.000000 +0.000000 0
+0.000000 +0.000000 0
+0.000000 +0.000000 0
+0.000000 +0.000000 0
-0.000000 -0.000000 0
+0.000000 +0.000000 0
+0.000000 +0.000000 0
+0.000000 +0.000000 0
+0.000000 +0.000000 0
+0.000000 +0.000000 0
+0.000000 +0.000000 0
+0.000000 +0.000000 0
+0.000000 +0.000000 0
+0.000000 +0.000000 0
+0.000000 +0.000000 0
+0.000000 +0.000000 0
+0.000000 +0.000000 0
+0.000000 +0.000000 0
+0.000000 +0.000000 0
+0.000000 +0.000000 0
+0.000000 +0.000000 0
+0.000000 +0.000000 0
+0.000000 +0.000000 0
+0.000000 +0.000000 0
+0.000000 +0.000000 0
+0.000000 +0.000000 0
+0.000000 +0.000000 0
+0.000000 +0.000000 0
+0.000000 +0.000000 0
+0.000000 +0.000000 0
+0.000000 +0.000000 0
+0.000000 +0.000000 0
+0.000000 +0.000000 0
+0.000000 +0.000000 0
+0.000000 +0.000000 0
+0.000000 +0.000000 0
+0.000000 +0.000000 0
+0.000000 +0.000000 0
+0.000000 +0.000000 0
+0.000000 +0.000000 0
+0.045428 -0.034286 0
+0.127490 -0.096219 0
+0.227493 -0.171692 0
+0.336377 -0.253869 0
+0.445819 -0.336467 0
+0.548461 -0.413932 0
+0.637677 -0.481265 0
+0.707749 -0.534149 0
+0.754039 -0.569085 0
+0.773157 -0.583514 0
+0.763090 -0.575916 0
+0.723275 -0.545867 0
+0.654607 -0.494043 0
+0.559390 -0.422180 0
+0.441211 -0.332989 0
+0.304769 -0.230014 0
+0.155641 -0.117464 0
+0.016424 -0.012396 0
+0.083541 -0.063050 0
+0.175840 -0.132709 0
+0.281398 -0.212375 0
+0.391525 -0.295490 0
+0.498445 -0.376185 0
+0.595147 -0.449167 0
+0.675440 -0.509766 0
+0.734123 -0.554054 0
+0.767163 -0.578990 0
+0.771846 -0.582525 0
+0.746879 -0.563682 0
+0.692431 -0.522589 0
+0.610112 -0.460461 0
+0.502887 -0.379537 0
+0.374925 -0.282962 0
+0.231396 -0.174638 0
+0.078209 -0.059025 0
-0.026938 +0.196169 0
-0.052750 +0.384129 0
-0.076365 +0.556100 0
-0.096819 +0.705051 0
-0.113300 +0.825063 0
-0.125185 +0.911611 0
-0.132076 +0.961794 0
-0.133818 +0.974482 0
-0.130509 +0.950386 0
-0.122498 +0.892042 0
-0.110369 +0.803724 0
-0.094928 +0.691277 0
-0.077163 +0.561908 0
-0.058220 +0.423967 0
-0.039375 +0.286731 0
-0.022066 +0.160688 0
-0.007863 +0.057258 0
-0.013536 +0.098574 0
-0.040050 +0.291650 0
-0.064892 +0.472553 0
-0.087040 +0.633836 0
-0.105599 +0.768981 0
-0.119846 +0.872736 0
-0.129270 +0.941362 0
-0.133592 +0.972830 0
-0.132781 +0.966928 0
-0.127062 +0.925284 0
-0.116906 +0.851321 0
-0.103008 +0.750120 0
-0.086271 +0.628237 0
-0.067765 +0.493476 0
-0.048704 +0.354672 0
-0.030434 +0.221627 0
-0.014459 +0.105295 0
-0.002843 +0.020701 0
+0.000000 +0.000000 0
+0.000000 +0.000000 0
+0.000000 +0.000000 0
+0.000000 +0.000000 0
+0.000000 +0.000000 0
+0.000000 +0.000000 0
+0.000000 +0.000000 0
+0.000000 +0.000000 0
+0.000000 +0.000000 0
+0.000000 +0.000000 0
+0.000000 +0.000000 0
+0.000000 +0.000000 0
+0.000000 +0.000000 0
+0.000000 +0.000000 0
+0.000000 +0.000000 0
+0.000000 +0.000000 0
+0.000000 +0.000000 0
+0.000000 +0.000000 0
+0.000000 +0.000000 0
+0.000000 +0.000000 0
+0.000000 +0.000000 0
+0.000000 +0.000000 0
+0.000000 +0.000000 0
+0.000000 +0.000000 0
+0.000000 +0.000000 0
+0.000000 +0.000000 0
+0.000000 +0.000000 0
+0.000000 +0.000000 0
+0.000000 +0.000000 0
+0.000000 +0.000000 0
+0.000000 +0.000000 0
+0.000000 +0.000000 0
+0.000000 +0.000000 0
+0.000000 +0.000000 0
+0.000000 +0.000000 0
+0.000000 +0.000000 0
+0.000000 +0.000000 0
+0.000000 +0.000000 0
+0.000000 +0.000000 0
+0.000000 +0.000000 0
+0.000000 +0.000000 0
+0.000000 +0.000000 0
+0.000000 +0.000000 0
+0.000000 +0.000000 0
+0.000000 +0.000000 0
+0.000000 +0.000000 0
+0.000000 +0.000000 0
+0.000000 +0.000000 0
+0.000000 +0.000000 0
+0.000000 +0.000000 0
+0.000000 +0.000000 0
+0.000000 +0.000000 0
+0.000000 +0.000000 0
+0.000000 +0.000000 0
+0.000000 +0.000000 0
+0.000000 +0.000000 0
+0.000000 +0.000000 0
+0.000000 +0.000000 0
+0.000000 +0.000000 0
+0.000000 +0.000000 0
+0.000000 +0.000000 0
+0.000000 +0.000000 0
+0.000000 +0.000000 0
+0.000000 +0.000000 0
+0.000000 +0.000000 0
+0.000000 +0.000000 0
+0.000000 +0.000000 0
+0.000000 +0.000000 0
+0.000000 +0.000000 0
+0.000000 +0.000000 0
+0.000000 +0.000000 0
+0.000000 +0.000000 0
+0.000000 +0.000000 0
+0.000000 +0.000000 0
+0.000000 +0.000000 0
+0.000000 +0.000000 0
+0.000000 +0.000000 0
+0.000000 +0.000000 0
+0.000000 +0.000000 0
+0.000000 +0.000000 0
+0.000000 +0.000000 0
+0.000000 +0.000000 0
+0.000000 +0.000000 0
+0.000000 +0.000000 0
+0.000000 +0.000000 0
+0.000000 +0.000000 0
+0.000000 +0.000000 0
+0.000000 +0.000000 0
+0.000000 +0.000000 0
+0.000000 +0.000000 0
+0.000000 +0.000000 0
+0.000000 +0.000000 0
+0.000000 +0.000000 0
+0.000000 +0.000000 0
+0.000000 +0.000000 0
+0.000000 +0.000000 0
+0.000000 +0.000000 0
+0.000000 +0.000000 0
+0.000000 +0.000000 0
+0.000000 +0.000000 0
+0.000000 +0.000000 0
+0.000000 +0.000000 0
+0.000000 +0.000000 0
+0.000000 +0.000000 0
+0.000000 +0.000000 0
-0.037566 -0.022972 0
-0.105424 -0.064469 0
-0.188118 -0.115038 0
-0.278156 -0.170098 0
-0.368656 -0.225441 0
-0.453533 -0.277345 0
-0.527307 -0.322459 0
-0.585251 -0.357893 0
-0.623529 -0.381301 0
-0.639338 -0.390968 0
-0.631014 -0.385878 0
-0.598090 -0.365744 0
-0.541307 -0.331020 0
-0.462570 -0.282871 0
-0.364846 -0.223111 0
-0.252019 -0.154115 0
-0.128702 -0.078704 0
-0.013581 -0.008305 0
-0.069082 -0.042245 0
-0.145405 -0.088918 0
-0.232693 -0.142297 0
-0.323760 -0.197986 0
-0.412174 -0.252053 0
-0.492139 -0.300953 0
-0.558535 -0.341555 0
-0.607061 -0.371230 0
-0.634382 -0.387937 0
-0.638255 -0.390306 0
-0.617609 -0.377680 0
-0.572584 -0.350147 0
-0.504513 -0.308520 0
-0.415847 -0.254299 0
-0.310033 -0.189591 0
-0.191346 -0.117012 0
-0.064672 -0.039548 0
+0.000000 +0.000000 0
+0.000000 +0.000000 0
+0.000000 +0.000000 0
+0.000000 +0.000000 0
+0.000000 +0.000000 0
+0.000000 +0.000000 0
+0.000000 +0.000000 0
+0.000000 +0.000000 0
+0.000000 +0.000000 0
+0.000000 +0.000000 0
+0.000000 +0.000000 0
+0.000000 +0.000000 0
+0.000000 +0.000000 0
+0.000000 +0.000000 0
+0.000000 +0.000000 0
+0.000000 +0.000000 0
+0.000000 +0.000000 0
+0.000000 +0.000000 0
+0.000000 +0.000000 0
+0.000000 +0.000000 0
+0.000000 +0.000000 0
+0.000000 +0.000000 0
+0.000000 +0.000000 0
+0.000000 +0.000000 0
+0.000000 +0.000000 0
+0.000000 +0.000000 0
+0.000000 +0.000000 0
+0.000000 +0.000000 0
+0.000000 +0.000000 0
+0.000000 +0.000000 0
+0.000000 +0.000000 0
+0.000000 +0.000000 0
+0.000000 +0.000000 0
+0.000000 +0.000000 0
+0.000000 +0.000000 0
+0.000000 +0.000000 0
+0.000000 +0.000000 0
+0.000000 +0.000000 0
+0.000000 +0.000000 0
+0.000000 +0.000000 0
+0.000000 +0.000000 0
+0.000000 +0.000000 0
+0.000000 +0.000000 0
+0.000000 +0.000000 0
+0.000000 +0.000000 0
+0.000000 +0.000000 0
+0.000000 +0.000000 0
+0.000000 +0.000000 0
+0.000000 +0.000000 0
+0.000000 +0.000000 0
+0.000000 +0.000000 0
+0.000000 +0.000000 0
+0.000000 +0.000000 0
+0.000000 +0.000000 0
+0.000000 +0.000000 0
+0.000000 +0.000000 0
+0.000000 +0.000000 0
+0.000000 +0.000000 0
+0.000000 +0.000000 0
+0.000000 +0.000000 0
+0.000000 +0.000000 0
+0.000000 +0.000000 0
+0.000000 +0.000000 0
+0.000000 +0.000000 0
+0.000000 +0.000000 0
+0.000000 +0.000000 0
+0.000000 +0.000000 0
+0.000000 +0.000000 0
+0.000000 +0.000000 0
+0.000000 +0.000000 0
-0.015666 +0.245077 0
-0.020421 +0.521265 0
-0.009666 +0.759914 0
+0.018743 +0.902703 0
+0.064100 +0.911483 0
+0.122728 +0.774542 0
+0.188197 +0.508335 0
+0.252010 +0.154109 0
+0.011932 +0.283109 0
+0.050781 +0.551624 0
+0.113524 +0.748945 0
+0.194608 +0.830456 0
+0.286297 +0.773309 0
+0.379135 +0.581026 0
+0.462563 +0.282867 0
+0.525849 -0.071681 0
+0.052954 +0.286866 0
+0.139552 +0.526978 0
+0.249535 +0.674010 0
+0.371011 +0.697320 0
+0.491407 +0.588984 0
+0.598087 +0.365742 0
+0.678947 +0.066012 0
+0.723327 -0.257163 0
+0.097921 +0.264483 0
+0.226387 +0.461440 0
+0.369504 +0.555747 0
+0.511871 +0.530526 0
+0.639338 +0.390968 0
+0.739102 +0.163497 0
+0.799953 -0.109045 0
+0.813062 -0.375080 0
+0.136199 +0.224037 0
+0.290644 +0.370588 0
+0.445231 +0.416586 0
+0.585253 +0.357894 0
+0.698627 +0.209717 0
+0.774941 +0.003452 0
+0.805474 -0.218886 0
+0.783983 -0.411820 0
+0.157126 +0.173523 0
+0.313170 +0.269483 0
+0.453533 +0.277345 0
+0.569146 +0.203726 0
+0.652668 +0.069331 0
+0.697233 -0.095042 0
+0.696977 -0.253307 0
+0.647888 -0.369628 0
+0.150655 +0.119542 0
+0.278147 +0.170092 0
+0.380120 +0.154478 0
+0.456232 +0.086142 0
+0.503721 -0.014964 0
+0.518753 -0.124411 0
+0.497754 -0.216183 0
+0.437871 -0.265986 0
+0.105311 +0.064400 0
+0.174193 +0.079109 0
+0.223616 +0.059308 0
+0.257049 +0.016442 0
+0.273597 -0.037292 0
+0.271459 -0.088481 0
+0.248751 -0.123696 0
+0.202988 -0.130526 0
-0.008835 +0.114324 0
-0.021956 +0.209913 0
-0.010263 +0.091645 0
-0.019745 +0.383673 0
-0.044288 +0.481668 0
-0.033679 +0.343303 0
-0.017180 +0.649301 0
-0.058350 +0.736258 0
-0.052791 +0.615537 0
+0.002307 +0.846241 0
-0.058096 +0.908789 0
-0.060286 +0.836159 0
+0.039464 +0.925241 0
-0.040323 +0.953904 0
-0.051474 +0.949153 0
+0.092098 +0.860844 0
-0.005141 +0.852116 0
-0.024765 +0.921471 0
+0.155101 +0.655527 0
+0.043917 +0.612597 0
+0.018000 +0.747905 0
+0.220894 +0.338869 0
+0.100336 +0.271007 0
+0.071706 +0.451459 0
+0.280346 -0.038212 0
+0.128687 +0.078695 0
+0.002515 +0.139753 0
-0.004068 +0.268942 0
-0.004403 +0.129825 0
+0.028120 +0.422858 0
+0.011883 +0.544114 0
+0.001302 +0.409706 0
+0.079457 +0.662393 0
+0.048620 +0.763554 0
+0.027702 +0.664414 0
+0.152211 +0.806195 0
+0.104360 +0.875744 0
+0.074330 +0.835546 0
+0.239684 +0.819631 0
+0.174690 +0.850127 0
+0.138076 +0.881064 0
+0.333216 +0.692792 0
+0.252770 +0.682750 0
+0.213273 +0.783315 0
+0.422706 +0.442468 0
+0.329802 +0.396838 0
+0.292023 +0.552189 0
+0.497368 +0.108993 0
+0.395870 +0.038295 0
+0.364837 +0.223105 0
+0.546847 -0.251333 0
+0.421688 -0.149739 0
+0.021730 +0.146057 0
+0.031319 +0.288748 0
+0.011410 +0.144964 0
+0.092636 +0.415913 0
+0.094131 +0.545345 0
+0.059148 +0.424477 0
+0.192338 +0.614518 0
+0.181693 +0.718265 0
+0.135336 +0.645067 0
+0.309614 +0.702206 0
+0.285022 +0.769865 0
+0.232015 +0.760773 0
+0.432139 +0.659128 0
+0.393613 +0.684901 0
+0.339359 +0.744404 0
+0.547239 +0.489768 0
+0.496049 +0.473859 0
+0.446333 +0.593496 0
+0.642457 +0.222361 0
+0.580671 +0.171117 0
+0.541302 +0.331017 0
+0.706274 -0.096275 0
+0.636513 -0.171439 0
+0.612814 +0.001137 0
+0.729204 -0.409337 0
+0.650716 -0.338971 0
+0.044178 +0.137973 0
+0.075595 +0.278444 0
+0.032870 +0.143557 0
+0.159323 +0.373947 0
+0.184507 +0.498362 0
+0.126689 +0.398578 0
+0.297103 +0.522976 0
+0.313356 +0.618894 0
+0.247319 +0.573022 0
+0.441697 +0.558283 0
+0.448048 +0.616353 0
+0.380848 +0.633635 0
+0.578299 +0.473846 0
+0.574770 +0.489679 0
+0.513244 +0.567667 0
+0.693428 +0.285850 0
+0.680429 +0.260976 0
+0.631013 +0.385877 0
+0.775012 +0.029736 0
+0.753102 -0.028486 0
+0.721568 +0.120699 0
+0.812904 -0.246193 0
+0.782880 -0.325777 0
+0.773862 -0.179661 0
+0.799892 -0.489412 0
+0.779433 -0.459976 0
+0.064577 +0.119626 0
+0.118574 +0.246005 0
+0.054977 +0.129823 0
+0.212349 +0.308848 0
+0.262597 +0.418196 0
+0.188534 +0.343535 0
+0.368916 +0.406884 0
+0.414512 +0.487402 0
+0.338600 +0.466807 0
+0.517864 +0.399806 0
+0.558666 +0.443298 0
+0.488450 +0.479333 0
+0.645956 +0.293353 0
+0.681509 +0.296552 0
+0.623530 +0.381301 0
+0.742008 +0.111391 0
+0.771179 +0.076726 0
+0.731169 +0.193317 0
+0.796390 -0.108560 0
+0.817588 -0.173088 0
+0.800335 -0.047458 0
+0.801497 -0.321793 0
+0.813175 -0.403835 0
+0.822078 -0.293910 0
+0.752714 -0.484015 0
+0.790517 -0.497213 0
+0.077476 +0.095101 0
+0.149473 +0.199571 0
+0.072297 +0.107892 0
+0.236376 +0.232281 0
+0.308203 +0.320465 0
+0.228886 +0.271329 0
+0.385955 +0.284386 0
+0.458955 +0.345822 0
+0.385445 +0.345420 0
+0.514904 +0.249713 0
+0.589234 +0.277207 0
+0.527309 +0.322460 0
+0.615360 +0.142386 0
+0.689131 +0.133241 0
+0.643548 +0.212907 0
+0.680220 -0.011303 0
+0.749976 -0.054245 0
+0.724931 +0.042572 0
+0.703011 -0.177251 0
+0.764507 -0.245604 0
+0.763408 -0.152051 0
+0.678696 -0.318786 0
+0.727696 -0.399829 0
+0.752720 -0.329788 0
+0.604455 -0.402304 0
+0.689312 -0.451496 0
+0.077621 +0.067923 0
+0.157935 +0.146666 0
+0.079469 +0.081673 0
+0.217629 +0.153603 0
+0.303687 +0.219019 0
+0.233159 +0.192786 0
+0.332286 +0.169891 0
+0.427484 +0.213048 0
+0.368655 +0.225440 0
+0.421535 +0.125784 0
+0.524571 +0.139501 0
+0.479647 +0.183601 0
+0.483789 +0.038234 0
+0.590143 +0.019593 0
+0.561624 +0.083698 0
+0.515533 -0.070273 0
+0.618987 -0.118376 0
+0.609470 -0.049078 0
+0.512951 -0.174102 0
+0.606482 -0.242928 0
+0.618145 -0.184299 0
+0.472832 -0.247701 0
+0.549344 -0.323871 0
+0.583637 -0.290567 0
+0.392537 -0.268707 0
+0.503441 -0.339955 0
+0.058924 +0.039569 0
+0.133806 +0.092292 0
+0.071143 +0.053962 0
+0.142793 +0.076854 0
+0.235247 +0.123340 0
+0.188116 +0.115037 0
+0.200939 +0.072793 0
+0.311704 +0.102881 0
+0.276266 +0.118737 0
+0.242346 +0.040034 0
+0.366036 +0.044846 0
+0.341675 +0.077581 0
+0.267541 -0.009888 0
+0.396747 -0.033899 0
+0.384508 +0.006891 0
+0.274981 -0.064060 0
+0.401108 -0.113978 0
+0.402397 -0.075032 0
+0.262800 -0.108889 0
+0.376431 -0.175468 0
+0.392557 -0.148250 0
+0.228987 -0.131399 0
+0.320053 -0.200029 0
+0.352401 -0.193410 0
+0.169808 -0.119499 0
+0.278772 -0.193423 0
+0.061960 +0.034354 0
+0.037290 +0.022804 0
+0.095185 +0.037752 0
+0.080121 +0.038539 0
+0.118452 +0.024713 0
+0.107869 +0.032888 0
+0.133383 +0.001431 0
+0.126975 +0.013967 0
+0.139449 -0.025682 0
+0.137579 -0.012071 0
+0.135728 -0.049768 0
+0.138872 -0.038533 0
+0.121190 -0.064105 0
+0.129889 -0.058557 0
+0.093965 -0.062265 0
+0.109380 -0.065630 0
+0.073814 -0.052782 0
-0.004899 +0.042036 0
-0.009670 +0.076777 0
-0.004631 +0.054666 0
-0.009971 +0.104090 0
-0.012555 +0.178189 0
-0.019534 +0.229061 0
-0.016021 +0.148162 0
-0.022834 +0.187239 0
-0.027891 +0.275363 0
-0.037621 +0.317182 0
-0.018097 +0.313956 0
-0.027680 +0.365389 0
-0.020548 +0.453147 0
-0.033515 +0.503650 0
-0.039190 +0.412463 0
-0.052577 +0.455153 0
-0.048862 +0.549719 0
-0.066489 +0.591262 0
-0.019321 +0.586994 0
-0.036282 +0.634838 0
-0.013977 +0.707246 0
-0.035381 +0.750686 0
-0.055989 +0.678042 0
-0.078291 +0.716491 0
-0.059811 +0.789243 0
-0.087064 +0.822808 0
-0.004246 +0.806500 0
-0.030378 +0.843914 0
+0.009970 +0.878502 0
-0.021019 +0.908498 0
-0.059734 +0.876231 0
-0.092060 +0.903366 0
-0.055354 +0.933255 0
-0.092724 +0.952731 0
+0.028583 +0.918407 0
-0.007244 +0.939902 0
+0.051320 +0.922982 0
+0.010806 +0.935263 0
-0.046466 +0.956124 0
-0.088717 +0.967083 0
-0.033082 +0.942366 0
-0.079927 +0.944364 0
+0.077718 +0.890743 0
+0.032787 +0.893503 0
+0.107134 +0.822009 0
+0.058159 +0.815365 0
-0.015435 +0.891327 0
-0.066483 +0.884350 0
+0.006029 +0.804177 0
-0.048741 +0.788643 0
+0.138756 +0.718877 0
+0.086193 +0.703366 0
+0.171627 +0.585114 0
+0.116000 +0.561667 0
+0.030662 +0.683848 0
-0.027279 +0.660581 0
+0.057637 +0.534882 0
-0.002868 +0.505073 0
+0.204668 +0.425972 0
+0.146558 +0.395865 0
+0.236725 +0.247930 0
+0.176753 +0.212729 0
+0.085983 +0.363206 0
+0.023563 +0.328351 0
+0.114617 +0.175847 0
+0.050966 +0.137669 0
+0.266599 +0.058390 0
+0.205422 +0.019863 0
+0.293120 -0.134693 0
+0.142412 -0.019415 0
-0.002779 +0.063333 0
-0.006967 +0.122866 0
+0.000386 +0.069012 0
-0.001229 +0.135434 0
+0.006360 +0.211429 0
+0.003438 +0.277167 0
-0.004853 +0.198691 0
-0.010480 +0.258316 0
-0.002031 +0.339624 0
-0.010037 +0.398394 0
+0.019189 +0.353905 0
+0.014077 +0.417815 0
+0.038661 +0.489073 0
+0.030631 +0.549700 0
+0.005931 +0.478206 0
-0.005221 +0.534704 0
+0.019138 +0.606494 0
+0.004239 +0.659107 0
+0.064398 +0.609675 0
+0.052881 +0.665444 0
+0.095857 +0.709049 0
+0.080443 +0.758410 0
+0.037535 +0.717036 0
+0.018449 +0.764142 0
+0.060898 +0.803273 0
+0.037349 +0.843377 0
+0.132340 +0.781504 0
+0.112774 +0.823057 0
+0.173004 +0.822624 0
+0.149176 +0.855218 0
+0.088838 +0.859855 0
+0.060701 +0.891693 0
+0.120800 +0.882895 0
+0.088092 +0.905516 0
+0.216877 +0.829500 0
+0.188808 +0.852303 0
+0.262872 +0.800870 0
+0.230696 +0.813422 0
+0.156073 +0.870149 0
+0.118938 +0.882972 0
+0.193797 +0.821116 0
+0.152487 +0.823963 0
+0.309798 +0.737182 0
+0.273749 +0.739424 0
+0.356384 +0.640572 0
+0.316778 +0.632856 0
+0.232977 +0.737057 0
+0.187840 +0.730167 0
+0.272502 +0.620928 0
+0.223964 +0.604950 0
+0.401300 +0.514766 0
+0.358518 +0.497838 0
+0.443185 +0.364896 0
+0.397663 +0.339866 0
+0.311176 +0.477238 0
+0.259724 +0.453197 0
+0.347742 +0.311831 0
+0.293915 +0.281081 0
+0.480680 +0.197259 0
+0.432900 +0.165548 0
+0.512477 +0.019020 0
+0.462953 -0.017708 0
+0.380933 +0.131603 0
+0.325307 +0.095764 0
+0.409504 -0.055822 0
+0.352693 -0.094947 0
+0.537352 -0.162129 0
+0.486636 -0.202048 0
+0.554234 -0.338338 0
+0.432304 -0.242464 0
+0.004608 +0.072220 0
+0.006743 +0.142916 0
+0.009615 +0.073286 0
+0.016422 +0.145999 0
+0.036210 +0.217533 0
+0.041926 +0.288692 0
+0.020328 +0.217436 0
+0.021266 +0.286937 0
+0.044282 +0.358058 0
+0.043208 +0.425033 0
+0.071805 +0.353266 0
+0.075696 +0.421388 0
+0.115267 +0.474066 0
+0.116734 +0.537567 0
+0.075795 +0.487185 0
+0.072039 +0.550113 0
+0.114015 +0.598217 0
+0.107060 +0.655526 0
+0.165296 +0.574004 0
+0.163888 +0.631314 0
+0.220476 +0.648011 0
+0.215882 +0.697676 0
+0.157938 +0.685279 0
+0.147417 +0.735471 0
+0.206433 +0.743567 0
+0.192125 +0.785323 0
+0.279309 +0.692173 0
+0.271350 +0.732947 0
+0.340245 +0.703954 0
+0.328855 +0.734875 0
+0.258264 +0.769610 0
+0.240078 +0.801877 0
+0.312110 +0.761465 0
+0.290073 +0.783519 0
+0.401707 +0.682343 0
+0.386915 +0.702787 0
+0.462105 +0.627907 0
+0.444017 +0.637627 0
+0.366585 +0.718815 0
+0.340822 +0.730307 0
+0.420256 +0.642994 0
+0.390972 +0.643974 0
+0.519852 +0.542776 0
+0.498634 +0.541919 0
+0.573383 +0.430541 0
+0.549247 +0.419646 0
+0.471659 +0.536924 0
+0.439124 +0.527843 0
+0.519325 +0.404979 0
+0.483865 +0.386673 0
+0.621174 +0.296090 0
+0.594370 +0.276068 0
+0.661774 +0.145378 0
+0.632581 +0.117473 0
+0.561810 +0.252779 0
+0.523791 +0.226430 0
+0.597728 +0.086926 0
+0.557555 +0.054009 0
+0.693833 -0.014847 0
+0.662563 -0.049116 0
+0.716150 -0.177359 0
+0.683144 -0.216268 0
+0.625792 -0.085307 0
+0.583904 -0.123092 0
+0.644862 -0.256312 0
+0.601730 -0.297128 0
+0.727712 -0.334789 0
+0.693347 -0.376494 0
+0.727748 -0.479973 0
+0.653997 -0.418516 0
+0.015111 +0.072480 0
+0.027231 +0.145231 0
+0.020773 +0.070061 0
+0.038538 +0.141125 0
+0.069964 +0.203027 0
+0.086877 +0.272098 0
+0.053083 +0.212477 0
+0.064225 +0.283417 0
+0.100190 +0.340726 0
+0.109710 +0.408258 0
+0.127783 +0.321678 0
+0.143304 +0.387087 0
+0.192269 +0.420719 0
+0.205991 +0.480822 0
+0.154859 +0.451341 0
+0.162246 +0.513838 0
+0.215395 +0.539096 0
+0.220277 +0.594998 0
+0.261409 +0.495663 0
+0.273054 +0.548923 0
+0.333211 +0.543087 0
+0.342610 +0.588153 0
+0.280042 +0.599742 0
+0.282177 +0.647641 0
+0.347028 +0.630252 0
+0.346282 +0.668976 0
+0.405741 +0.560836 0
+0.412811 +0.596611 0
+0.477147 +0.548142 0
+0.481863 +0.573832 0
+0.414592 +0.628997 0
+0.410923 +0.657672 0
+0.481003 +0.595841 0
+0.474436 +0.613933 0
+0.545659 +0.505665 0
+0.548032 +0.520822 0
+0.609595 +0.435463 0
+0.609650 +0.440012 0
+0.544570 +0.532151 0
+0.535182 +0.539505 0
+0.603652 +0.440737 0
+0.591552 +0.437586 0
+0.667349 +0.340898 0
+0.665123 +0.335144 0
+0.717408 +0.226479 0
+0.712936 +0.211098 0
+0.656670 +0.325727 0
+0.641992 +0.312685 0
+0.702122 +0.192368 0
+0.685022 +0.170410 0
+0.758360 +0.097651 0
+0.751683 +0.073671 0
+0.788926 -0.039443 0
+0.780094 -0.070691 0
+0.738617 +0.046792 0
+0.719269 +0.017211 0
+0.764899 -0.104270 0
+0.743502 -0.139920 0
+0.807987 -0.178246 0
+0.797070 -0.215181 0
+0.814627 -0.312078 0
+0.801723 -0.352947 0
+0.779894 -0.253793 0
+0.756677 -0.293771 0
+0.782753 -0.394783 0
+0.757982 -0.437244 0
+0.808170 -0.434443 0
+0.793425 -0.477402 0
+0.788224 -0.539320 0
+0.772892 -0.520603 0
+0.026265 +0.066286 0
+0.049678 +0.134193 0
+0.031241 +0.061418 0
+0.059963 +0.124954 0
+0.099661 +0.174030 0
+0.127845 +0.235399 0
+0.085832 +0.189953 0
+0.108537 +0.255750 0
+0.152897 +0.297392 0
+0.174477 +0.359375 0
+0.173858 +0.269138 0
+0.201233 +0.326640 0
+0.251367 +0.342783 0
+0.277790 +0.394825 0
+0.225187 +0.383955 0
+0.245357 +0.440491 0