# vtk DataFile Version 2.0
MyTitle
ASCII
DATASET UNSTRUCTURED_GRID
POINTS 3025 double
1.000000 0.000000 0.000000
0.500000 0.866025 0.000000
0.500000 -0.866025 0.000000
-1.000000 0.000000 0.000000
-0.500000 -0.866025 0.000000
-0.500000 0.866025 0.000000
0.000000 0.000000 0.000000
0.972222 0.048113 0.000000
0.944444 0.096225 0.000000
0.916667 0.144338 0.000000
0.888889 0.192450 0.000000
0.861111 0.240563 0.000000
0.833333 0.288675 0.000000
0.805556 0.336788 0.000000
0.777778 0.384900 0.000000
0.750000 0.433013 0.000000
0.722222 0.481125 0.000000
0.694444 0.529238 0.000000
0.666667 0.577350 0.000000
0.638889 0.625463 0.000000
0.611111 0.673575 0.000000
0.583333 0.721688 0.000000
0.555556 0.769800 0.000000
0.527778 0.817913 0.000000
0.986111 0.024056 0.000000
0.958333 0.072169 0.000000
0.930556 0.120281 0.000000
0.902778 0.168394 0.000000
0.875000 0.216506 0.000000
0.847222 0.264619 0.000000
0.819444 0.312731 0.000000
0.791667 0.360844 0.000000
0.763889 0.408956 0.000000
0.736111 0.457069 0.000000
0.708333 0.505181 0.000000
0.680556 0.553294 0.000000
0.652778 0.601407 0.000000
0.625000 0.649519 0.000000
0.597222 0.697632 0.000000
0.569444 0.745744 0.000000
0.541667 0.793857 0.000000
0.513889 0.841969 0.000000
0.472222 0.817913 0.000000
0.444444 0.769800 0.000000
0.416667 0.721688 0.000000
0.388889 0.673575 0.000000
0.361111 0.625463 0.000000
0.333333 0.577350 0.000000
0.305556 0.529238 0.000000
0.277778 0.481125 0.000000
0.250000 0.433013 0.000000
0.222222 0.384900 0.000000
0.194444 0.336788 0.000000
0.166667 0.288675 0.000000
0.138889 0.240563 0.000000
0.111111 0.192450 0.000000
0.083333 0.144338 0.000000
0.055556 0.096225 0.000000
0.027778 0.048113 0.000000
0.486111 0.841969 0.000000
0.458333 0.793857 0.000000
0.430556 0.745744 0.000000
0.402778 0.697632 0.000000
0.375000 0.649519 0.000000
0.347222 0.601407 0.000000
0.319444 0.553294 0.000000
0.291667 0.505181 0.000000
0.263889 0.457069 0.000000
0.236111 0.408956 0.000000
0.208333 0.360844 0.000000
0.180556 0.312731 0.000000
0.152778 0.264619 0.000000
0.125000 0.216506 0.000000
0.097222 0.168394 0.000000
0.069444 0.120281 0.000000
0.041667 0.072169 0.000000
0.013889 0.024056 0.000000
0.027778 -0.048113 0.000000
0.055556 -0.096225 0.000000
0.083333 -0.144338 0.000000
0.111111 -0.192450 0.000000
0.138889 -0.240563 0.000000
0.166667 -0.288675 0.000000
0.194444 -0.336788 0.000000
0.222222 -0.384900 0.000000
0.250000 -0.433013 0.000000
0.277778 -0.481125 0.000000
0.305556 -0.529238 0.000000
0.333333 -0.577350 0.000000
0.361111 -0.625463 0.000000
0.388889 -0.673575 0.000000
0.416667 -0.721688 0.000000
0.444444 -0.769800 0.000000
0.472222 -0.817913 0.000000
0.013889 -0.024056 0.000000
0.041667 -0.072169 0.000000
0.069444 -0.120281 0.000000
0.097222 -0.168394 0.000000
0.125000 -0.216506 0.000000
0.152778 -0.264619 0.000000
0.180556 -0.312731 0.000000
0.208333 -0.360844 0.000000
0.236111 -0.408956 0.000000
0.263889 -0.457069 0.000000
0.291667 -0.505181 0.000000
0.319444 -0.553294 0.000000
0.347222 -0.601407 0.000000
0.375000 -0.649519 0.000000
0.402778 -0.697632 0.000000
0.430556 -0.745744 0.000000
0.458333 -0.793857 0.000000
0.486111 -0.841969 0.000000
0.527778 -0.817913 0.000000
0.555556 -0.769800 0.000000
0.583333 -0.721688 0.000000
0.611111 -0.673575 0.000000
0.638889 -0.625463 0.000000
0.666667 -0.577350 0.000000
0.694444 -0.529238 0.000000
0.722222 -0.481125 0.000000
0.750000 -0.433013 0.000000
0.777778 -0.384900 0.000000
0.805556 -0.336788 0.000000
0.833333 -0.288675 0.000000
0.861111 -0.240563 0.000000
0.888889 -0.192450 0.000000
0.916667 -0.144338 0.000000
0.944444 -0.096225 0.000000
0.972222 -0.048113 0.000000
0.513889 -0.841969 0.000000
0.541667 -0.793857 0.000000
0.569444 -0.745744 0.000000
0.597222 -0.697632 0.000000
0.625000 -0.649519 0.000000
0.652778 -0.601407 0.000000
0.680556 -0.553294 0.000000
0.708333 -0.505181 0.000000
0.736111 -0.457069 0.000000
0.763889 -0.408956 0.000000
0.791667 -0.360844 0.000000
0.819444 -0.312731 0.000000
0.847222 -0.264619 0.000000
0.875000 -0.216506 0.000000
0.902778 -0.168394 0.000000
0.930556 -0.120281 0.000000
0.958333 -0.072169 0.000000
0.986111 -0.024056 0.000000
0.444444 0.866025 0.000000
0.388889 0.866025 0.000000
0.333333 0.866025 0.000000
0.277778 0.866025 0.000000
0.222222 0.866025 0.000000
0.166667 0.866025 0.000000
0.111111 0.866025 0.000000
0.055556 0.866025 0.000000
0.000000 0.866025 0.000000
-0.055556 0.866025 0.000000
-0.111111 0.866025 0.000000
-0.166667 0.866025 0.000000
-0.222222 0.866025 0.000000
-0.277778 0.866025 0.000000
-0.333333 0.866025 0.000000
-0.388889 0.866025 0.000000
-0.444444 0.866025 0.000000
0.472222 0.866025 0.000000
0.416667 0.866025 0.000000
0.361111 0.866025 0.000000
0.305556 0.866025 0.000000
0.250000 0.866025 0.000000
0.194444 0.866025 0.000000
0.138889 0.866025 0.000000
0.083333 0.866025 0.000000
0.027778 0.866025 0.000000
-0.027778 0.866025 0.000000
-0.083333 0.866025 0.000000
-0.138889 0.866025 0.000000
-0.194444 0.866025 0.000000
-0.250000 0.866025 0.000000
-0.305556 0.866025 0.000000
-0.361111 0.866025 0.000000
-0.416667 0.866025 0.000000
-0.472222 0.866025 0.000000
-0.527778 0.817913 0.000000
-0.555556 0.769800 0.000000
-0.583333 0.721688 0.000000
-0.611111 0.673575 0.000000
-0.638889 0.625463 0.000000
-0.666667 0.577350 0.000000
-0.694444 0.529238 0.000000
-0.722222 0.481125 0.000000
-0.750000 0.433013 0.000000
-0.777778 0.384900 0.000000
-0.805556 0.336788 0.000000
-0.833333 0.288675 0.000000
-0.861111 0.240563 0.000000
-0.888889 0.192450 0.000000
-0.916667 0.144338 0.000000
-0.944444 0.096225 0.000000
-0.972222 0.048113 0.000000
-0.513889 0.841969 0.000000
-0.541667 0.793857 0.000000
-0.569444 0.745744 0.000000
-0.597222 0.697632 0.000000
-0.625000 0.649519 0.000000
-0.652778 0.601407 0.000000
-0.680556 0.553294 0.000000
-0.708333 0.505181 0.000000
-0.736111 0.457069 0.000000
-0.763889 0.408956 0.000000
-0.791667 0.360844 0.000000
-0.819444 0.312731 0.000000
-0.847222 0.264619 0.000000
-0.875000 0.216506 0.000000
-0.902778 0.168394 0.000000
-0.930556 0.120281 0.000000
-0.958333 0.072169 0.000000
-0.986111 0.024056 0.000000
-0.944444 0.000000 0.000000
-0.888889 0.000000 0.000000
-0.833333 0.000000 0.000000
-0.777778 0.000000 0.000000
-0.722222 0.000000 0.000000
-0.666667 0.000000 0.000000
-0.611111 0.000000 0.000000
-0.555556 0.000000 0.000000
-0.500000 0.000000 0.000000
-0.444444 0.000000 0.000000
-0.388889 0.000000 0.000000
-0.333333 0.000000 0.000000
-0.277778 0.000000 0.000000
-0.222222 0.000000 0.000000
-0.166667 0.000000 0.000000
-0.111111 0.000000 0.000000
-0.055556 0.000000 0.000000
-0.972222 0.000000 0.000000
-0.916667 0.000000 0.000000
-0.861111 0.000000 0.000000
-0.805556 0.000000 0.000000
-0.750000 0.000000 0.000000
-0.694444 0.000000 0.000000
-0.638889 0.000000 0.000000
-0.583333 0.000000 0.000000
-0.527778 0.000000 0.000000
-0.472222 0.000000 0.000000
-0.416667 0.000000 0.000000
-0.361111 0.000000 0.000000
-0.305556 0.000000 0.000000
-0.250000 0.000000 0.000000
-0.194444 0.000000 0.000000
-0.138889 0.000000 0.000000
-0.083333 0.000000 0.000000
-0.027778 0.000000 0.000000
-0.972222 -0.048113 0.000000
-0.944444 -0.096225 0.000000
-0.916667 -0.144338 0.000000
-0.888889 -0.192450 0.000000
-0.861111 -0.240563 0.000000
-0.833333 -0.288675 0.000000
-0.805556 -0.336788 0.000000
-0.777778 -0.384900 0.000000
-0.750000 -0.433013 0.000000
-0.722222 -0.481125 0.000000
-0.694444 -0.529238 0.000000
-0.666667 -0.577350 0.000000
-0.638889 -0.625463 0.000000
-0.611111 -0.673575 0.000000
-0.583333 -0.721688 0.000000
-0.555556 -0.769800 0.000000
-0.527778 -0.817913 0.000000
-0.986111 -0.024056 0.000000
-0.958333 -0.072169 0.000000
-0.930556 -0.120281 0.000000
-0.902778 -0.168394 0.000000
-0.875000 -0.216506 0.000000
-0.847222 -0.264619 0.000000
-0.819444 -0.312731 0.000000
-0.791667 -0.360844 0.000000
-0.763889 -0.408956 0.000000
-0.736111 -0.457069 0.000000
-0.708333 -0.505181 0.000000
-0.680556 -0.553294 0.000000
-0.652778 -0.601407 0.000000
-0.625000 -0.649519 0.000000
-0.597222 -0.697632 0.000000
-0.569444 -0.745744 0.000000
-0.541667 -0.793857 0.000000
-0.513889 -0.841969 0.000000
-0.444444 -0.866025 0.000000
-0.388889 -0.866025 0.000000
-0.333333 -0.866025 0.000000
-0.277778 -0.866025 0.000000
-0.222222 -0.866025 0.000000
-0.166667 -0.866025 0.000000
-0.111111 -0.866025 0.000000
-0.055556 -0.866025 0.000000
-0.000000 -0.866025 0.000000
0.055556 -0.866025 0.000000
0.111111 -0.866025 0.000000
0.166667 -0.866025 0.000000
0.222222 -0.866025 0.000000
0.277778 -0.866025 0.000000
0.333333 -0.866025 0.000000
0.388889 -0.866025 0.000000
0.444444 -0.866025 0.000000
-0.472222 -0.866025 0.000000
-0.416667 -0.866025 0.000000
-0.361111 -0.866025 0.000000
-0.305556 -0.866025 0.000000
-0.250000 -0.866025 0.000000
-0.194444 -0.866025 0.000000
-0.138889 -0.866025 0.000000
-0.083333 -0.866025 0.000000
-0.027778 -0.866025 0.000000
0.027778 -0.866025 0.000000
0.083333 -0.866025 0.000000
0.138889 -0.866025 0.000000
0.194444 -0.866025 0.000000
0.250000 -0.866025 0.000000
0.305556 -0.866025 0.000000
0.361111 -0.866025 0.000000
0.416667 -0.866025 0.000000
0.472222 -0.866025 0.000000
0.500000 -0.673575 0.000000
0.444444 -0.577350 0.000000
0.388889 -0.481125 0.000000
0.333333 -0.384900 0.000000
0.277778 -0.288675 0.000000
0.222222 -0.192450 0.000000
0.166667 -0.096225 0.000000
0.111111 0.000000 0.000000
0.555556 -0.577350 0.000000
0.500000 -0.481125 0.000000
0.444444 -0.384900 0.000000
0.388889 -0.288675 0.000000
0.333333 -0.192450 0.000000
0.277778 -0.096225 0.000000
0.222222 0.000000 0.000000
0.166667 0.096225 0.000000
0.611111 -0.481125 0.000000
0.555556 -0.384900 0.000000
0.500000 -0.288675 0.000000
0.444444 -0.192450 0.000000
0.388889 -0.096225 0.000000
0.333333 0.000000 0.000000
0.277778 0.096225 0.000000
0.222222 0.192450 0.000000
0.666667 -0.384900 0.000000
0.611111 -0.288675 0.000000
0.555556 -0.192450 0.000000
0.500000 -0.096225 0.000000
0.444444 0.000000 0.000000
0.388889 0.096225 0.000000
0.333333 0.192450 0.000000
0.277778 0.288675 0.000000
0.722222 -0.288675 0.000000
[...]
POINT_DATA 3025
VECTORS sol double
+0.000000 +0.000000 0
+0.000000 +0.000000 0
+0.000000 +0.000000 0
+0.000000 +0.000000 0
+0.000000 +0.000000 0
+0.000000 +0.000000 0
+0.000000 +0.000000 0
+0.000000 +0.000000 0
+0.000000 +0.000000 0
+0.000000 +0.000000 0
+0.000000 +0.000000 0
+0.000000 +0.000000 0
+0.000000 +0.000000 0
+0.000000 +0.000000 0
+0.000000 +0.000000 0
+0.000000 +0.000000 0
+0.000000 +0.000000 0
+0.000000 +0.000000 0
+0.000000 +0.000000 0
+0.000000 +0.000000 0
+0.000000 +0.000000 0
+0.000000 +0.000000 0
+0.000000 +0.000000 0
+0.000000 +0.000000 0
+0.000000 +0.000000 0
+0.000000 +0.000000 0
+0.000000 +0.000000 0
+0.000000 +0.000000 0
+0.000000 +0.000000 0
+0.000000 +0.000000 0
+0.000000 +0.000000 0
+0.000000 +0.000000 0
+0.000000 +0.000000 0
+0.000000 +0.000000 0
+0.000000 +0.000000 0
+0.000000 +0.000000 0
+0.000000 +0.000000 0
+0.000000 +0.000000 0
+0.000000 +0.000000 0
+0.000000 +0.000000 0
+0.000000 +0.000000 0
+0.000000 +0.000000 0
-0.072259 +0.082918 0
-0.200198 +0.229731 0
-0.349681 +0.401266 0
-0.501812 +0.575839 0
-0.639787 +0.734167 0
-0.750082 +0.860733 0
-0.822683 +0.944044 0
-0.851670 +0.977307 0
-0.835507 +0.958759 0
-0.776999 +0.891620 0
-0.682908 +0.783649 0
-0.563228 +0.646314 0
-0.430200 +0.493662 0
-0.297139 +0.340973 0
-0.177182 +0.203319 0
-0.082063 +0.094168 0
-0.021035 +0.024138 0
-0.026213 +0.030080 0
-0.132181 +0.151681 0
-0.273490 +0.313834 0
-0.426594 +0.489524 0
-0.573529 +0.658135 0
-0.699146 +0.802282 0
-0.791589 +0.908362 0
-0.842839 +0.967173 0
-0.849153 +0.974418 0
-0.811193 +0.930858 0
-0.733814 +0.842065 0
-0.625504 +0.717777 0
-0.497518 +0.570911 0
-0.362790 +0.416308 0
-0.234702 +0.269324 0
-0.125835 +0.144398 0
-0.046808 +0.053713 0
-0.005280 +0.006059 0
+0.007357 -0.012820 0
+0.028701 -0.050016 0
+0.061969 -0.107990 0
+0.103924 -0.181102 0
+0.150462 -0.262201 0
+0.196988 -0.343280 0
+0.238845 -0.416223 0
+0.271754 -0.473570 0
+0.292217 -0.509230 0
+0.297870 -0.519082 0
+0.287731 -0.501414 0
+0.262340 -0.457165 0
+0.223764 -0.389941 0
+0.175508 -0.305848 0
+0.122300 -0.213126 0
+0.070019 -0.122018 0
+0.025272 -0.044041 0
+0.001847 -0.003218 0
+0.016371 -0.028529 0
+0.044011 -0.076695 0
+0.082086 -0.143047 0
+0.126885 -0.221116 0
+0.174006 -0.303231 0
+0.218768 -0.381236 0
+0.256650 -0.447250 0
+0.283713 -0.494411 0
+0.296989 -0.517547 0
+0.294781 -0.513699 0
+0.276856 -0.482463 0
+0.244525 -0.426120 0
+0.200590 -0.349558 0
+0.149200 -0.260003 0
+0.095652 -0.166688 0
+0.046230 -0.080563 0
+0.009168 -0.015977 0
+0.000000 +0.000000 0
+0.000000 +0.000000 0
+0.000000 +0.000000 0
+0.000000 +0.000000 0
+0.000000 +0.000000 0
+0.000000 +0.000000 0
+0.000000 +0.000000 0
+0.000000 +0.000000 0
+0.000000 +0.000000 0
+0.000000 +0.000000 0
+0.000000 +0.000000 0
+0.000000 +0.000000 0
+0.000000 +0.000000 0
+0.000000 +0.000000 0
+0.000000 +0.000000 0
+0.000000 +0.000000 0
+0.000000 +0.000000 0
+0.000000 +0.000000 0
+0.000000 +0.000000 0
+0.000000 +0.000000 0
+0.000000 +0.000000 0
+0.000000 +0.000000 0
+0.000000 +0.000000 0
+0.000000 +0.000000 0
+0.000000 +0.000000 0
+0.000000 +0.000000 0
+0.000000 +0.000000 0
+0.000000 +0.000000 0
+0.000000 +0.000000 0
+0.000000 +0.000000 0
+0.000000 +0.000000 0
+0.000000 +0.000000 0
+0.000000 +0.000000 0
+0.000000 +0.000000 0
+0.000000 +0.000000 0
+0.000000 +0.000000 0
+0.000000 +0.000000 0
+0.000000 +0.000000 0
+0.000000 +0.000000 0
+0.000000 +0.000000 0
+0.000000 +0.000000 0
+0.000000 +0.000000 0
+0.000000 +0.000000 0
+0.000000 +0.000000 0
+0.000000 +0.000000 0
+0.000000 +0.000000 0
+0.000000 +0.000000 0
+0.000000 +0.000000 0
+0.000000 +0.000000 0
+0.000000 +0.000000 0
+0.000000 +0.000000 0
+0.000000 +0.000000 0
+0.000000 +0.000000 0
+0.000000 +0.000000 0
+0.000000 +0.000000 0
+0.000000 +0.000000 0
+0.000000 +0.000000 0
+0.000000 +0.000000 0
+0.000000 +0.000000 0
+0.000000 +0.000000 0
+0.000000 +0.000000 0
+0.000000 +0.000000 0
+0.000000 +0.000000 0
+0.000000 +0.000000 0
+0.000000 +0.000000 0
+0.000000 +0.000000 0
+0.000000 +0.000000 0
+0.000000 +0.000000 0
+0.000000 +0.000000 0
+0.000000 +0.000000 0
+0.000000 +0.000000 0
+0.000000 +0.000000 0
+0.000000 +0.000000 0
+0.000000 +0.000000 0
+0.000000 +0.000000 0
+0.000000 +0.000000 0
+0.000000 +0.000000 0
+0.000000 +0.000000 0
+0.000000 +0.000000 0
+0.000000 +0.000000 0
+0.000000 +0.000000 0
+0.000000 +0.000000 0
+0.000000 +0.000000 0
+0.000000 +0.000000 0
+0.000000 +0.000000 0
+0.000000 +0.000000 0
+0.000000 +0.000000 0
+0.000000 +0.000000 0
+0.000000 +0.000000 0
+0.000000 +0.000000 0
+0.000000 +0.000000 0
+0.000000 +0.000000 0
+0.000000 +0.000000 0
+0.000000 +0.000000 0
+0.000000 +0.000000 0
+0.000000 +0.000000 0
+0.000000 +0.000000 0
+0.000000 +0.000000 0
+0.000000 +0.000000 0
+0.000000 +0.000000 0
+0.000000 +0.000000 0
+0.000000 +0.000000 0
+0.000000 +0.000000 0
+0.000000 +0.000000 0
+0.000000 +0.000000 0
+0.046986 -0.038877 0
+0.130179 -0.107713 0
+0.227381 -0.188140 0
+0.326305 -0.269991 0
+0.416023 -0.344225 0
+0.487743 -0.403568 0
+0.534951 -0.442629 0
+0.553801 -0.458226 0
+0.543290 -0.449529 0
+0.505245 -0.418050 0
+0.444062 -0.367426 0
+0.366240 -0.303034 0
+0.279739 -0.231461 0
+0.193216 -0.159870 0
+0.115213 -0.095329 0
+0.053361 -0.044152 0
+0.013678 -0.011317 0
+0.017045 -0.014104 0
+0.085951 -0.071118 0
+0.177837 -0.147146 0
+0.277394 -0.229521 0
+0.372939 -0.308577 0
+0.454621 -0.376163 0
+0.514732 -0.425900 0
+0.548058 -0.453474 0
+0.552164 -0.456871 0
+0.527480 -0.436447 0
+0.477164 -0.394815 0
+0.406735 -0.336541 0
+0.323512 -0.267681 0
+0.235905 -0.195193 0
+0.152615 -0.126277 0
+0.081825 -0.067703 0
+0.030437 -0.025184 0
+0.003433 -0.002841 0
+0.000000 +0.000000 0
+0.000000 +0.000000 0
+0.000000 +0.000000 0
+0.000000 +0.000000 0
+0.000000 +0.000000 0
+0.000000 +0.000000 0
+0.000000 +0.000000 0
+0.000000 +0.000000 0
+0.000000 +0.000000 0
+0.000000 +0.000000 0
+0.000000 +0.000000 0
+0.000000 +0.000000 0
+0.000000 +0.000000 0
+0.000000 +0.000000 0
+0.000000 +0.000000 0
+0.000000 +0.000000 0
+0.000000 +0.000000 0
+0.000000 +0.000000 0
+0.000000 +0.000000 0
+0.000000 +0.000000 0
+0.000000 +0.000000 0
+0.000000 +0.000000 0
+0.000000 +0.000000 0
+0.000000 +0.000000 0
+0.000000 +0.000000 0
+0.000000 +0.000000 0
+0.000000 +0.000000 0
+0.000000 +0.000000 0
+0.000000 +0.000000 0
+0.000000 +0.000000 0
+0.000000 +0.000000 0
+0.000000 +0.000000 0
+0.000000 +0.000000 0
+0.000000 +0.000000 0
+0.000000 +0.000000 0
+0.000000 +0.000000 0
+0.000000 +0.000000 0
+0.000000 +0.000000 0
+0.000000 +0.000000 0
+0.000000 +0.000000 0
+0.000000 +0.000000 0
+0.000000 +0.000000 0
+0.000000 +0.000000 0
+0.000000 +0.000000 0
+0.000000 +0.000000 0
+0.000000 +0.000000 0
+0.000000 +0.000000 0
+0.000000 +0.000000 0
+0.000000 +0.000000 0
+0.000000 +0.000000 0
+0.000000 +0.000000 0
+0.000000 +0.000000 0
+0.000000 +0.000000 0
+0.000000 +0.000000 0
+0.000000 +0.000000 0
+0.000000 +0.000000 0
+0.000000 +0.000000 0
+0.000000 +0.000000 0
+0.000000 +0.000000 0
+0.000000 +0.000000 0
+0.000000 +0.000000 0
+0.000000 +0.000000 0
+0.000000 +0.000000 0
+0.000000 +0.000000 0
+0.000000 +0.000000 0
+0.000000 +0.000000 0
+0.000000 +0.000000 0
+0.000000 +0.000000 0
+0.000000 +0.000000 0
+0.000000 +0.000000 0
+0.149185 -0.227112 0
+0.328490 -0.483660 0
+0.477034 -0.680593 0
+0.547203 -0.754510 0
+0.518157 -0.685747 0
+0.400167 -0.501330 0
+0.229091 -0.262888 0
+0.053340 -0.044135 0
+0.233492 -0.317769 0
+0.480827 -0.629966 0
+0.665881 -0.840280 0
+0.731818 -0.885596 0
+0.657351 -0.754322 0
+0.460990 -0.486865 0
+0.193191 -0.159850 0
-0.080132 +0.139637 0
+0.305548 -0.379550 0
+0.592700 -0.708712 0
+0.775441 -0.889830 0
+0.797971 -0.869862 0
+0.649752 -0.654450 0
+0.366219 -0.303017 0
+0.016415 +0.091851 0
-0.317610 +0.433021 0
+0.347166 -0.398376 0
+0.633958 -0.698895 0
+0.775844 -0.814121 0
+0.729950 -0.711045 0
+0.505233 -0.418039 0
+0.157108 -0.013161 0
-0.229906 +0.400645 0
-0.565580 +0.724985 0
+0.347307 -0.369608 0
+0.593726 -0.603101 0
+0.669307 -0.634854 0
+0.553796 -0.458222 0
+0.278474 -0.123346 0
-0.085861 +0.280648 0
-0.449168 +0.651726 0
-0.725149 +0.901747 0
+0.305423 -0.300643 0
+0.482530 -0.447002 0
+0.487742 -0.403568 0
+0.327523 -0.189943 0
+0.049848 +0.130928 0
-0.271199 +0.472611 0
-0.554073 +0.747768 0
-0.728449 +0.888618 0
+0.229898 -0.207893 0
+0.326294 -0.269982 0
+0.281198 -0.184922 0
+0.122137 +0.010781 0
-0.101199 +0.258079 0
-0.327799 +0.489528 0
-0.497945 +0.644130 0
-0.564855 +0.679233 0
+0.130036 -0.107594 0
+0.155382 -0.110895 0
+0.103317 -0.037556 0
+0.000533 +0.081798 0
-0.121408 +0.211579 0
-0.228846 +0.316085 0
-0.291790 +0.366006 0
-0.287971 +0.341946 0
+0.067036 -0.104092 0
+0.108244 -0.175909 0
+0.046254 -0.076252 0
+0.238976 -0.357567 0
+0.249593 -0.396242 0
+0.178418 -0.286444 0
+0.410092 -0.594423 0
+0.369089 -0.573120 0
+0.315077 -0.494748 0
+0.523946 -0.735296 0
+0.426168 -0.645687 0
+0.407109 -0.624751 0
+0.545150 -0.737294 0
+0.404172 -0.593946 0
+0.425020 -0.634835 0
+0.468513 -0.604724 0
+0.313367 -0.441526 0
+0.365771 -0.527356 0
+0.318348 -0.384236 0
+0.185532 -0.244675 0
+0.251552 -0.344404 0
+0.138724 -0.146677 0
+0.061939 -0.071078 0
+0.120654 -0.150967 0
-0.021671 +0.037759 0
+0.013658 -0.011301 0
+0.110152 -0.153098 0
+0.191638 -0.274995 0
+0.088542 -0.129783 0
+0.360378 -0.481033 0
+0.407302 -0.563205 0
+0.300867 -0.423579 0
+0.585388 -0.752880 0
+0.578413 -0.771890 0
+0.502344 -0.682476 0
+0.716015 -0.885590 0
+0.651710 -0.836733 0
+0.629527 -0.824568 0
+0.711873 -0.840610 0
+0.604726 -0.740858 0
+0.643245 -0.807910 0
+0.571839 -0.633403 0
+0.450535 -0.516998 0
+0.538932 -0.641228 0
+0.332034 -0.325272 0
+0.231407 -0.233772 0
+0.345668 -0.377737 0
+0.053037 -0.001582 0
+0.004235 +0.028390 0
+0.115189 -0.095309 0
-0.198869 +0.255711 0
-0.094967 +0.129713 0
+0.149182 -0.188976 0
+0.272286 -0.353300 0
+0.130777 -0.173169 0
+0.457242 -0.557288 0
+0.544077 -0.679590 0
+0.413687 -0.526558 0
+0.701561 -0.822395 0
+0.733142 -0.880627 0
+0.653384 -0.800671 0
+0.808532 -0.906038 0
+0.781689 -0.897001 0
+0.777110 -0.913512 0
+0.743978 -0.783953 0
+0.672471 -0.724748 0
+0.746122 -0.832464 0
+0.521156 -0.490408 0
+0.431657 -0.413402 0
+0.565380 -0.581687 0
+0.194508 -0.104699 0
+0.118919 -0.047855 0
+0.279715 -0.231442 0
-0.157576 +0.274598 0
-0.191147 +0.278987 0
-0.041103 +0.125734 0
-0.455078 +0.558780 0
-0.323031 +0.403547 0
+0.174813 -0.204419 0
+0.331080 -0.394902 0
+0.164192 -0.199610 0
+0.504141 -0.567390 0
+0.623353 -0.715306 0
+0.488093 -0.571210 0
+0.726868 -0.783188 0
+0.789926 -0.867118 0
+0.726598 -0.816438 0
+0.777033 -0.789482 0
+0.780029 -0.806212 0
+0.808337 -0.863629 0
+0.637412 -0.584323 0
+0.592073 -0.549262 0
+0.706445 -0.698933 0
+0.341735 -0.223390 0
+0.271557 -0.165498 0
+0.444045 -0.367412 0
-0.037330 +0.199220 0
-0.103889 +0.246211 0
+0.085181 +0.043401 0
-0.409364 +0.579212 0
-0.446785 +0.586746 0
-0.284603 +0.430791 0
-0.690163 +0.830580 0
-0.581753 +0.706063 0
+0.180354 -0.195756 0
+0.352708 -0.389752 0
+0.180328 -0.203104 0
+0.488527 -0.508745 0
+0.623839 -0.660610 0
+0.504295 -0.546089 0
+0.655405 -0.646059 0
+0.734543 -0.734748 0
+0.702519 -0.725012 0
+0.634605 -0.570634 0
+0.652320 -0.591897 0
+0.717480 -0.689261 0
+0.432402 -0.305624 0
+0.397415 -0.271913 0
+0.543282 -0.449522 0
+0.101987 +0.076414 0
+0.034016 +0.140225 0
+0.224031 -0.070961 0
-0.273388 +0.476423 0
-0.349006 +0.540367 0
-0.160917 +0.348254 0
-0.602725 +0.796201 0
-0.661769 +0.833786 0
-0.519188 +0.705262 0
-0.809595 +0.962942 0
-0.768991 +0.919444 0
+0.164117 -0.165220 0
+0.331248 -0.339262 0
+0.174854 -0.182855 0
+0.413933 -0.396665 0
+0.545620 -0.530289 0
+0.457805 -0.457844 0
+0.507341 -0.448995 0
+0.585025 -0.521745 0
+0.588858 -0.551890 0
+0.426127 -0.314902 0
+0.442537 -0.320614 0
+0.534950 -0.442628 0
+0.199140 -0.037800 0
+0.159084 +0.014920 0
+0.314349 -0.164494 0
-0.110404 +0.304868 0
-0.190997 +0.395077 0
-0.013048 +0.205592 0
-0.422268 +0.623403 0
-0.520077 +0.723466 0
-0.363563 +0.571335 0
-0.658333 +0.838018 0
-0.748528 +0.921120 0
-0.651014 +0.842347 0
-0.759831 +0.896427 0
-0.806872 +0.955523 0
+0.129213 -0.120092 0
+0.271148 -0.256061 0
+0.148681 -0.143914 0
+0.296335 -0.258353 0
+0.408120 -0.358502 0
+0.359267 -0.328931 0
+0.320350 -0.244249 0
+0.384169 -0.288658 0
+0.416022 -0.344225 0
+0.213210 -0.097582 0
+0.217866 -0.076502 0
+0.316218 -0.196987 0
+0.014812 +0.132177 0
-0.039565 +0.214500 0
+0.096440 +0.063938 0
-0.218004 +0.379912 0
-0.318493 +0.505437 0
-0.180981 +0.364983 0
-0.423269 +0.579631 0
-0.546867 +0.721007 0
-0.443155 +0.626724 0
-0.546487 +0.678369 0
-0.665597 +0.805833 0
-0.622777 +0.782125 0
-0.550409 +0.645143 0
-0.671822 +0.789926 0
+0.079825 -0.068386 0
+0.182807 -0.158097 0
+0.106243 -0.094747 0
+0.153972 -0.120561 0
+0.240847 -0.186122 0
+0.227379 -0.188138 0
+0.137449 -0.082021 0
+0.185518 -0.099332 0
+0.225741 -0.155117 0
+0.056404 +0.018511 0
+0.047766 +0.065006 0
+0.124490 -0.023958 0
-0.060164 +0.147695 0
-0.129431 +0.257348 0
-0.038915 +0.161024 0
-0.178965 +0.269038 0
-0.297357 +0.424995 0
-0.217574 +0.347377 0
-0.267472 +0.349317 0
-0.410635 +0.522616 0
-0.363294 +0.484861 0
-0.299308 +0.364083 0
-0.434985 +0.519748 0
-0.435514 +0.534989 0
-0.255849 +0.298041 0
-0.406929 +0.475519 0
+0.069970 -0.055558 0
+0.046631 -0.038583 0
+0.073645 -0.047757 0
+0.077401 -0.057203 0
+0.040032 -0.003696 0
+0.060586 -0.029238 0
-0.015837 +0.059631 0
+0.013873 +0.026698 0
-0.077241 +0.123686 0
-0.046937 +0.092733 0
-0.127177 +0.170769 0
-0.104637 +0.150332 0
-0.151095 +0.186975 0
-0.143148 +0.183406 0
-0.138002 +0.162811 0
-0.149790 +0.180461 0
-0.113897 +0.132222 0
+0.020814 -0.034631 0
+0.036103 -0.061274 0
+0.031218 -0.049045 0
+0.056561 -0.090504 0
+0.106666 -0.163937 0
+0.128420 -0.201852 0
+0.075727 -0.123906 0
+0.088728 -0.149268 0
+0.142746 -0.230540 0
+0.149630 -0.249897 0
+0.193610 -0.292148 0
+0.208307 -0.322434 0
+0.284249 -0.421866 0
+0.288723 -0.440614 0
+0.214294 -0.342102 0
+0.211646 -0.351100 0
+0.283413 -0.447483 0
+0.268548 -0.442558 0
+0.370719 -0.541577 0
+0.362510 -0.545629 0
+0.445760 -0.641068 0
+0.423391 -0.628406 0
+0.343815 -0.536902 0
+0.315063 -0.515684 0
+0.390307 -0.602575 0
+0.347163 -0.564098 0
+0.503258 -0.712195 0
+0.466395 -0.682175 0
+0.538678 -0.749469 0
+0.488192 -0.702910 0
+0.419116 -0.639182 0
+0.362303 -0.583986 0
+0.428122 -0.644185 0
+0.359556 -0.574296 0
+0.549363 -0.750394 0
+0.487289 -0.689555 0
+0.534672 -0.715570 0
+0.464080 -0.643994 0
+0.416958 -0.617931 0
+0.339626 -0.536719 0
+0.386976 -0.563509 0
+0.304726 -0.475445 0
+0.495959 -0.648526 0
+0.420739 -0.570787 0
+0.436383 -0.555316 0
+0.360971 -0.476684 0
+0.341060 -0.486386 0
+0.258334 -0.396716 0
+0.283331 -0.393856 0
+0.204844 -0.308202 0
+0.360586 -0.443922 0
+0.289650 -0.369969 0
+0.274265 -0.323506 0
+0.212365 -0.259686 0
+0.218746 -0.294333 0
+0.149148 -0.218275 0
+0.152640 -0.196572 0
+0.096183 -0.135232 0
+0.183666 -0.203589 0
+0.134930 -0.154833 0
+0.095063 -0.093229 0
+0.062890 -0.063571 0
+0.090255 -0.108879 0
+0.050488 -0.066531 0
+0.036286 -0.038376 0
+0.015795 -0.018124 0
+0.014254 -0.000259 0
+0.001066 +0.007470 0
-0.053900 +0.069354 0
-0.005519 +0.009621 0
+0.041966 -0.062261 0
+0.077717 -0.117199 0
+0.052854 -0.074319 0
+0.099386 -0.141778 0
+0.170750 -0.234779 0
+0.212782 -0.297147 0
+0.138766 -0.201186 0
+0.170334 -0.251562 0
+0.246032 -0.349638 0
+0.269971 -0.391418 0
+0.297110 -0.400395 0
+0.331152 -0.453589 0
+0.422012 -0.558058 0
+0.445040 -0.598470 0
+0.354977 -0.495250 0
+0.368222 -0.524725 0
+0.456743 -0.626026 0
+0.456966 -0.640293 0
+0.535637 -0.695327 0
+0.545396 -0.720223 0
+0.629083 -0.801505 0
+0.624308 -0.809313 0
+0.543160 -0.731409 0
+0.529016 -0.728713 0
+0.607385 -0.803132 0
+0.578659 -0.783070 0
+0.695050 -0.868482 0
+0.675593 -0.858972 0
+0.728361 -0.891324 0
+0.695235 -0.865663 0
+0.644396 -0.835823 0
+0.602054 -0.799427 0
+0.651328 -0.827349 0
+0.597471 -0.777034 0
+0.726306 -0.868580 0
+0.681619 -0.829267 0
+0.688772 -0.802285 0
+0.635585 -0.752978 0
+0.627623 -0.778879 0
+0.565345 -0.718283 0
+0.574995 -0.694673 0
+0.508168 -0.628396 0
+0.618170 -0.697686 0
+0.560280 -0.642930 0
+0.519173 -0.562715 0
+0.460839 -0.507606 0
+0.497215 -0.581629 0
+0.430212 -0.514888 0
+0.399746 -0.448621 0
+0.337132 -0.386863 0
+0.398291 -0.407266 0
+0.343925 -0.357067 0
+0.263326 -0.242349 0
+0.217180 -0.202092 0
+0.289263 -0.305705 0
+0.235460 -0.254198 0
+0.173093 -0.163255 0
+0.132069 -0.126691 0
+0.122758 -0.079180 0
+0.088613 -0.053286 0
-0.014901 +0.071704 0
-0.033999 +0.079752 0
+0.058639 -0.031105 0
+0.033619 -0.013245 0
-0.047185 +0.082231 0
-0.053953 +0.078841 0
-0.141712 +0.201226 0
-0.143682 +0.189159 0
-0.250877 +0.302449 0
-0.138465 +0.170217 0
+0.063386 -0.084856 0
+0.120653 -0.163595 0
+0.072957 -0.093375 0
+0.140322 -0.181660 0
+0.227197 -0.284971 0
+0.289748 -0.367697 0
+0.200846 -0.263221 0
+0.253422 -0.336570 0
+0.343684 -0.441644 0
+0.388034 -0.505479 0
+0.382716 -0.470901 0
+0.436882 -0.543921 0
+0.527685 -0.637065 0
+0.570452 -0.696878 0
+0.480912 -0.606383 0
+0.514024 -0.657158 0
+0.601938 -0.744768 0
+0.621593 -0.779860 0
+0.651035 -0.770884 0
+0.680196 -0.814944 0
+0.743307 -0.862300 0
+0.757642 -0.889233 0
+0.697405 -0.846246 0
+0.702377 -0.864209 0
+0.759894 -0.903192 0
+0.750060 -0.903901 0
+0.797343 -0.904510 0
+0.796716 -0.914245 0
+0.808777 -0.894430 0
+0.794142 -0.888205 0
+0.784445 -0.911439 0
+0.760810 -0.896130 0
+0.768869 -0.870520 0
+0.733499 -0.841702 0
+0.776283 -0.832829 0
+0.749617 -0.813100 0
+0.701598 -0.724158 0
+0.665746 -0.694414 0
+0.713835 -0.783588 0
+0.669706 -0.744866 0
+0.622737 -0.657060 0
+0.573521 -0.612859 0
+0.589306 -0.576100 0
+0.547767 -0.540589 0
+0.446423 -0.398884 0
+0.403100 -0.362292 0
+0.501365 -0.500012 0
+0.451158 -0.455245 0
+0.357405 -0.323391 0
+0.310435 -0.283090 0
+0.281833 -0.204436 0
+0.240745 -0.171530 0
+0.105607 -0.005433 0
+0.070602 +0.019295 0
+0.199832 -0.139115 0
+0.160153 -0.108046 0
+0.038229 +0.040865 0
+0.009430 +0.058561 0
-0.071725 +0.185646 0
-0.097242 +0.198322 0
-0.239907 +0.357426 0
-0.253216 +0.355081 0
-0.117906 +0.205471 0
-0.132952 +0.206580 0
-0.259807 +0.345276 0
-0.259163 +0.327774 0
-0.389634 +0.500400 0
-0.388901 +0.481207 0
-0.513168 +0.607570 0
-0.380048 +0.453169 0
+0.080964 -0.099398 0
+0.157170 -0.194983 0
+0.086883 -0.102566 0
+0.170097 -0.202769 0
+0.262118 -0.303645 0
+0.340387 -0.398159 0
+0.248086 -0.298732 0
+0.319397 -0.388666 0
+0.411590 -0.486305 0
+0.474408 -0.566438 0
+0.428351 -0.486849 0
+0.498062 -0.571536 0
+0.573115 -0.638522 0
+0.631243 -0.709952 0
+0.559133 -0.648030 0
+0.610437 -0.714899 0
+0.679539 -0.771803 0
+0.717120 -0.822909 0
+0.685544 -0.747427 0
+0.729870 -0.803133 0
+0.757177 -0.805570 0
+0.786431 -0.844224 0
+0.763645 -0.848419 0
+0.786266 -0.882428 0
+0.804946 -0.872234 0
+0.812422 -0.889074 0
+0.782534 -0.808743 0
+0.796460 -0.830235 0
+0.759438 -0.756740 0
+0.758788 -0.762163 0
+0.800020 -0.841507 0
+0.793222 -0.842366 0
+0.748697 -0.758425 0
+0.729469 -0.745652 0
+0.689079 -0.653255 0
+0.675532 -0.644801 0
+0.575822 -0.505487 0
+0.551847 -0.486262 0
+0.653982 -0.628826 0
+0.624996 -0.605738 0
+0.521745 -0.461648 0
+0.486301 -0.432272 0
+0.426809 -0.323497 0
+0.395477 -0.297281 0
+0.251382 -0.119394 0
+0.216146 -0.090346 0
+0.360233 -0.268166 0
+0.322011 -0.236934 0
+0.179420 -0.061101 0
+0.142223 -0.032506 0
+0.060391 +0.093594 0
+0.024837 +0.121244 0
-0.134570 +0.302083 0
-0.166971 +0.324354 0
-0.009713 +0.146353 0
-0.042236 +0.168087 0
-0.195951 +0.341477 0
-0.220559 +0.352718 0
-0.321942 +0.493463 0
-0.348077 +0.506916 0
-0.490952 +0.656729 0
-0.508280 +0.658720 0
-0.368594 +0.512910 0
-0.382681 +0.510882 0
-0.518140 +0.651379 0
-0.519927 +0.634385 0
-0.632272 +0.783159 0
-0.639012 +0.772048 0
-0.738598 +0.866836 0
-0.636892 +0.750286 0
+0.090316 -0.102681 0
+0.178239 -0.204533 0
+0.091027 -0.099740 0
+0.181039 -0.200170 0
+0.266318 -0.286282 0
+0.351379 -0.381063 0
+0.268342 -0.299400 0
+0.351299 -0.395565 0
+0.431857 -0.472503 0
+0.506237 -0.558871 0
+0.421841 -0.444229 0
+0.498372 -0.529301 0
+0.546180 -0.562034 0
+0.611197 -0.634054 0
+0.568697 -0.609189 0
+0.631484 -0.682367 0