# vtk DataFile Version 2.0
MyTitle
ASCII
DATASET UNSTRUCTURED_GRID
POINTS 3025 double
1.000000 0.000000 0.000000
0.500000 0.866025 0.000000
0.500000 -0.866025 0.000000
-1.000000 0.000000 0.000000
-0.500000 -0.866025 0.000000
-0.500000 0.866025 0.000000
0.000000 0.000000 0.000000
0.972222 0.048113 0.000000
0.944444 0.096225 0.000000
0.916667 0.144338 0.000000
0.888889 0.192450 0.000000
0.861111 0.240563 0.000000
0.833333 0.288675 0.000000
0.805556 0.336788 0.000000
0.777778 0.384900 0.000000
0.750000 0.433013 0.000000
0.722222 0.481125 0.000000
0.694444 0.529238 0.000000
0.666667 0.577350 0.000000
0.638889 0.625463 0.000000
0.611111 0.673575 0.000000
0.583333 0.721688 0.000000
0.555556 0.769800 0.000000
0.527778 0.817913 0.000000
0.986111 0.024056 0.000000
0.958333 0.072169 0.000000
0.930556 0.120281 0.000000
0.902778 0.168394 0.000000
0.875000 0.216506 0.000000
0.847222 0.264619 0.000000
0.819444 0.312731 0.000000
0.791667 0.360844 0.000000
0.763889 0.408956 0.000000
0.736111 0.457069 0.000000
0.708333 0.505181 0.000000
0.680556 0.553294 0.000000
0.652778 0.601407 0.000000
0.625000 0.649519 0.000000
0.597222 0.697632 0.000000
0.569444 0.745744 0.000000
0.541667 0.793857 0.000000
0.513889 0.841969 0.000000
0.472222 0.817913 0.000000
0.444444 0.769800 0.000000
0.416667 0.721688 0.000000
0.388889 0.673575 0.000000
0.361111 0.625463 0.000000
0.333333 0.577350 0.000000
0.305556 0.529238 0.000000
0.277778 0.481125 0.000000
0.250000 0.433013 0.000000
0.222222 0.384900 0.000000
0.194444 0.336788 0.000000
0.166667 0.288675 0.000000
0.138889 0.240563 0.000000
0.111111 0.192450 0.000000
0.083333 0.144338 0.000000
0.055556 0.096225 0.000000
0.027778 0.048113 0.000000
0.486111 0.841969 0.000000
0.458333 0.793857 0.000000
0.430556 0.745744 0.000000
0.402778 0.697632 0.000000
0.375000 0.649519 0.000000
0.347222 0.601407 0.000000
0.319444 0.553294 0.000000
0.291667 0.505181 0.000000
0.263889 0.457069 0.000000
0.236111 0.408956 0.000000
0.208333 0.360844 0.000000
0.180556 0.312731 0.000000
0.152778 0.264619 0.000000
0.125000 0.216506 0.000000
0.097222 0.168394 0.000000
0.069444 0.120281 0.000000
0.041667 0.072169 0.000000
0.013889 0.024056 0.000000
0.027778 -0.048113 0.000000
0.055556 -0.096225 0.000000
0.083333 -0.144338 0.000000
0.111111 -0.192450 0.000000
0.138889 -0.240563 0.000000
0.166667 -0.288675 0.000000
0.194444 -0.336788 0.000000
0.222222 -0.384900 0.000000
0.250000 -0.433013 0.000000
0.277778 -0.481125 0.000000
0.305556 -0.529238 0.000000
0.333333 -0.577350 0.000000
0.361111 -0.625463 0.000000
0.388889 -0.673575 0.000000
0.416667 -0.721688 0.000000
0.444444 -0.769800 0.000000
0.472222 -0.817913 0.000000
0.013889 -0.024056 0.000000
0.041667 -0.072169 0.000000
0.069444 -0.120281 0.000000
0.097222 -0.168394 0.000000
0.125000 -0.216506 0.000000
0.152778 -0.264619 0.000000
0.180556 -0.312731 0.000000
0.208333 -0.360844 0.000000
0.236111 -0.408956 0.000000
0.263889 -0.457069 0.000000
0.291667 -0.505181 0.000000
0.319444 -0.553294 0.000000
0.347222 -0.601407 0.000000
0.375000 -0.649519 0.000000
0.402778 -0.697632 0.000000
0.430556 -0.745744 0.000000
0.458333 -0.793857 0.000000
0.486111 -0.841969 0.000000
0.527778 -0.817913 0.000000
0.555556 -0.769800 0.000000
0.583333 -0.721688 0.000000
0.611111 -0.673575 0.000000
0.638889 -0.625463 0.000000
0.666667 -0.577350 0.000000
0.694444 -0.529238 0.000000
0.722222 -0.481125 0.000000
0.750000 -0.433013 0.000000
0.777778 -0.384900 0.000000
0.805556 -0.336788 0.000000
0.833333 -0.288675 0.000000
0.861111 -0.240563 0.000000
0.888889 -0.192450 0.000000
0.916667 -0.144338 0.000000
0.944444 -0.096225 0.000000
0.972222 -0.048113 0.000000
0.513889 -0.841969 0.000000
0.541667 -0.793857 0.000000
0.569444 -0.745744 0.000000
0.597222 -0.697632 0.000000
0.625000 -0.649519 0.000000
0.652778 -0.601407 0.000000
0.680556 -0.553294 0.000000
0.708333 -0.505181 0.000000
0.736111 -0.457069 0.000000
0.763889 -0.408956 0.000000
0.791667 -0.360844 0.000000
0.819444 -0.312731 0.000000
0.847222 -0.264619 0.000000
0.875000 -0.216506 0.000000
0.902778 -0.168394 0.000000
0.930556 -0.120281 0.000000
0.958333 -0.072169 0.000000
0.986111 -0.024056 0.000000
0.444444 0.866025 0.000000
0.388889 0.866025 0.000000
0.333333 0.866025 0.000000
0.277778 0.866025 0.000000
0.222222 0.866025 0.000000
0.166667 0.866025 0.000000
0.111111 0.866025 0.000000
0.055556 0.866025 0.000000
0.000000 0.866025 0.000000
-0.055556 0.866025 0.000000
-0.111111 0.866025 0.000000
-0.166667 0.866025 0.000000
-0.222222 0.866025 0.000000
-0.277778 0.866025 0.000000
-0.333333 0.866025 0.000000
-0.388889 0.866025 0.000000
-0.444444 0.866025 0.000000
0.472222 0.866025 0.000000
0.416667 0.866025 0.000000
0.361111 0.866025 0.000000
0.305556 0.866025 0.000000
0.250000 0.866025 0.000000
0.194444 0.866025 0.000000
0.138889 0.866025 0.000000
0.083333 0.866025 0.000000
0.027778 0.866025 0.000000
-0.027778 0.866025 0.000000
-0.083333 0.866025 0.000000
-0.138889 0.866025 0.000000
-0.194444 0.866025 0.000000
-0.250000 0.866025 0.000000
-0.305556 0.866025 0.000000
-0.361111 0.866025 0.000000
-0.416667 0.866025 0.000000
-0.472222 0.866025 0.000000
-0.527778 0.817913 0.000000
-0.555556 0.769800 0.000000
-0.583333 0.721688 0.000000
-0.611111 0.673575 0.000000
-0.638889 0.625463 0.000000
-0.666667 0.577350 0.000000
-0.694444 0.529238 0.000000
-0.722222 0.481125 0.000000
-0.750000 0.433013 0.000000
-0.777778 0.384900 0.000000
-0.805556 0.336788 0.000000
-0.833333 0.288675 0.000000
-0.861111 0.240563 0.000000
-0.888889 0.192450 0.000000
-0.916667 0.144338 0.000000
-0.944444 0.096225 0.000000
-0.972222 0.048113 0.000000
-0.513889 0.841969 0.000000
-0.541667 0.793857 0.000000
-0.569444 0.745744 0.000000
-0.597222 0.697632 0.000000
-0.625000 0.649519 0.000000
-0.652778 0.601407 0.000000
-0.680556 0.553294 0.000000
-0.708333 0.505181 0.000000
-0.736111 0.457069 0.000000
-0.763889 0.408956 0.000000
-0.791667 0.360844 0.000000
-0.819444 0.312731 0.000000
-0.847222 0.264619 0.000000
-0.875000 0.216506 0.000000
-0.902778 0.168394 0.000000
-0.930556 0.120281 0.000000
-0.958333 0.072169 0.000000
-0.986111 0.024056 0.000000
-0.944444 0.000000 0.000000
-0.888889 0.000000 0.000000
-0.833333 0.000000 0.000000
-0.777778 0.000000 0.000000
-0.722222 0.000000 0.000000
-0.666667 0.000000 0.000000
-0.611111 0.000000 0.000000
-0.555556 0.000000 0.000000
-0.500000 0.000000 0.000000
-0.444444 0.000000 0.000000
-0.388889 0.000000 0.000000
-0.333333 0.000000 0.000000
-0.277778 0.000000 0.000000
-0.222222 0.000000 0.000000
-0.166667 0.000000 0.000000
-0.111111 0.000000 0.000000
-0.055556 0.000000 0.000000
-0.972222 0.000000 0.000000
-0.916667 0.000000 0.000000
-0.861111 0.000000 0.000000
-0.805556 0.000000 0.000000
-0.750000 0.000000 0.000000
-0.694444 0.000000 0.000000
-0.638889 0.000000 0.000000
-0.583333 0.000000 0.000000
-0.527778 0.000000 0.000000
-0.472222 0.000000 0.000000
-0.416667 0.000000 0.000000
-0.361111 0.000000 0.000000
-0.305556 0.000000 0.000000
-0.250000 0.000000 0.000000
-0.194444 0.000000 0.000000
-0.138889 0.000000 0.000000
-0.083333 0.000000 0.000000
-0.027778 0.000000 0.000000
-0.972222 -0.048113 0.000000
-0.944444 -0.096225 0.000000
-0.916667 -0.144338 0.000000
-0.888889 -0.192450 0.000000
-0.861111 -0.240563 0.000000
-0.833333 -0.288675 0.000000
-0.805556 -0.336788 0.000000
-0.777778 -0.384900 0.000000
-0.750000 -0.433013 0.000000
-0.722222 -0.481125 0.000000
-0.694444 -0.529238 0.000000
-0.666667 -0.577350 0.000000
-0.638889 -0.625463 0.000000
-0.611111 -0.673575 0.000000
-0.583333 -0.721688 0.000000
-0.555556 -0.769800 0.000000
-0.527778 -0.817913 0.000000
-0.986111 -0.024056 0.000000
-0.958333 -0.072169 0.000000
-0.930556 -0.120281 0.000000
-0.902778 -0.168394 0.000000
-0.875000 -0.216506 0.000000
-0.847222 -0.264619 0.000000
-0.819444 -0.312731 0.000000
-0.791667 -0.360844 0.000000
-0.763889 -0.408956 0.000000
-0.736111 -0.457069 0.000000
-0.708333 -0.505181 0.000000
-0.680556 -0.553294 0.000000
-0.652778 -0.601407 0.000000
-0.625000 -0.649519 0.000000
-0.597222 -0.697632 0.000000
-0.569444 -0.745744 0.000000
-0.541667 -0.793857 0.000000
-0.513889 -0.841969 0.000000
-0.444444 -0.866025 0.000000
-0.388889 -0.866025 0.000000
-0.333333 -0.866025 0.000000
-0.277778 -0.866025 0.000000
-0.222222 -0.866025 0.000000
-0.166667 -0.866025 0.000000
-0.111111 -0.866025 0.000000
-0.055556 -0.866025 0.000000
-0.000000 -0.866025 0.000000
0.055556 -0.866025 0.000000
0.111111 -0.866025 0.000000
0.166667 -0.866025 0.000000
0.222222 -0.866025 0.000000
0.277778 -0.866025 0.000000
0.333333 -0.866025 0.000000
0.388889 -0.866025 0.000000
0.444444 -0.866025 0.000000
-0.472222 -0.866025 0.000000
-0.416667 -0.866025 0.000000
-0.361111 -0.866025 0.000000
-0.305556 -0.866025 0.000000
-0.250000 -0.866025 0.000000
-0.194444 -0.866025 0.000000
-0.138889 -0.866025 0.000000
-0.083333 -0.866025 0.000000
-0.027778 -0.866025 0.000000
0.027778 -0.866025 0.000000
0.083333 -0.866025 0.000000
0.138889 -0.866025 0.000000
0.194444 -0.866025 0.000000
0.250000 -0.866025 0.000000
0.305556 -0.866025 0.000000
0.361111 -0.866025 0.000000
0.416667 -0.866025 0.000000
0.472222 -0.866025 0.000000
0.500000 -0.673575 0.000000
0.444444 -0.577350 0.000000
0.388889 -0.481125 0.000000
0.333333 -0.384900 0.000000
0.277778 -0.288675 0.000000
0.222222 -0.192450 0.000000
0.166667 -0.096225 0.000000
0.111111 0.000000 0.000000
0.555556 -0.577350 0.000000
0.500000 -0.481125 0.000000
0.444444 -0.384900 0.000000
0.388889 -0.288675 0.000000
0.333333 -0.192450 0.000000
0.277778 -0.096225 0.000000
0.222222 0.000000 0.000000
0.166667 0.096225 0.000000
0.611111 -0.481125 0.000000
0.555556 -0.384900 0.000000
0.500000 -0.288675 0.000000
0.444444 -0.192450 0.000000
0.388889 -0.096225 0.000000
0.333333 0.000000 0.000000
0.277778 0.096225 0.000000
0.222222 0.192450 0.000000
0.666667 -0.384900 0.000000
0.611111 -0.288675 0.000000
0.555556 -0.192450 0.000000
0.500000 -0.096225 0.000000
0.444444 0.000000 0.000000
0.388889 0.096225 0.000000
0.333333 0.192450 0.000000
0.277778 0.288675 0.000000
0.722222 -0.288675 0.000000
[...]
POINT_DATA 3025
VECTORS sol double
+0.000000 +0.000000 0
+0.000000 +0.000000 0
+0.000000 +0.000000 0
+0.000000 +0.000000 0
+0.000000 +0.000000 0
+0.000000 +0.000000 0
+0.000000 -0.000000 0
+0.000000 +0.000000 0
+0.000000 +0.000000 0
+0.000000 +0.000000 0
+0.000000 +0.000000 0
+0.000000 +0.000000 0
+0.000000 +0.000000 0
+0.000000 +0.000000 0
+0.000000 +0.000000 0
+0.000000 +0.000000 0
+0.000000 +0.000000 0
+0.000000 +0.000000 0
+0.000000 +0.000000 0
+0.000000 +0.000000 0
+0.000000 +0.000000 0
+0.000000 +0.000000 0
+0.000000 +0.000000 0
+0.000000 +0.000000 0
+0.000000 +0.000000 0
+0.000000 +0.000000 0
+0.000000 +0.000000 0
+0.000000 +0.000000 0
+0.000000 +0.000000 0
+0.000000 +0.000000 0
+0.000000 +0.000000 0
+0.000000 +0.000000 0
+0.000000 +0.000000 0
+0.000000 +0.000000 0
+0.000000 +0.000000 0
+0.000000 +0.000000 0
+0.000000 +0.000000 0
+0.000000 +0.000000 0
+0.000000 +0.000000 0
+0.000000 +0.000000 0
+0.000000 +0.000000 0
+0.000000 +0.000000 0
-0.010489 +0.007152 0
-0.029060 +0.019816 0
-0.050758 +0.034613 0
-0.072841 +0.049671 0
-0.092868 +0.063328 0
-0.108878 +0.074246 0
-0.119416 +0.081432 0
-0.123624 +0.084301 0
-0.121278 +0.082701 0
-0.112785 +0.076910 0
-0.099127 +0.067596 0
-0.081755 +0.055750 0
-0.062446 +0.042583 0
-0.043131 +0.029412 0
-0.025719 +0.017538 0
-0.011912 +0.008123 0
-0.003053 +0.002082 0
-0.003805 +0.002595 0
-0.019187 +0.013084 0
-0.039698 +0.027071 0
-0.061922 +0.042226 0
-0.083251 +0.056770 0
-0.101484 +0.069204 0
-0.114903 +0.078354 0
-0.122342 +0.083427 0
-0.123259 +0.084052 0
-0.117749 +0.080295 0
-0.106517 +0.072635 0
-0.090795 +0.061914 0
-0.072217 +0.049246 0
-0.052661 +0.035910 0
-0.034068 +0.023232 0
-0.018266 +0.012456 0
-0.006794 +0.004633 0
-0.000766 +0.000523 0
+0.025296 +0.013246 0
+0.098688 +0.051678 0
+0.213078 +0.111579 0
+0.357338 +0.187121 0
+0.517357 +0.270916 0
+0.677335 +0.354689 0
+0.821261 +0.430056 0
+0.934415 +0.489310 0
+1.004776 +0.526155 0
+1.024214 +0.536334 0
+0.989354 +0.518079 0
+0.902045 +0.472359 0
+0.769404 +0.402901 0
+0.603477 +0.316013 0
+0.420525 +0.220209 0
+0.240757 +0.126073 0
+0.086898 +0.045504 0
+0.006350 +0.003325 0
+0.056291 +0.029477 0
+0.151329 +0.079244 0
+0.282251 +0.147802 0
+0.436290 +0.228465 0
+0.598313 +0.313309 0
+0.752228 +0.393907 0
+0.882481 +0.462114 0
+0.975536 +0.510843 0
+1.021187 +0.534748 0
+1.013594 +0.530772 0
+0.951961 +0.498498 0
+0.840789 +0.440282 0
+0.689723 +0.361176 0
+0.513019 +0.268645 0
+0.328897 +0.172228 0
+0.158961 +0.083240 0
+0.031524 +0.016508 0
+0.000000 +0.000000 0
+0.000000 +0.000000 0
+0.000000 +0.000000 0
+0.000000 +0.000000 0
+0.000000 +0.000000 0
+0.000000 +0.000000 0
+0.000000 +0.000000 0
+0.000000 +0.000000 0
+0.000000 +0.000000 0
+0.000000 +0.000000 0
+0.000000 +0.000000 0
+0.000000 +0.000000 0
+0.000000 +0.000000 0
+0.000000 +0.000000 0
+0.000000 +0.000000 0
+0.000000 +0.000000 0
+0.000000 +0.000000 0
+0.000000 +0.000000 0
+0.000000 +0.000000 0
+0.000000 +0.000000 0
+0.000000 +0.000000 0
+0.000000 +0.000000 0
+0.000000 +0.000000 0
+0.000000 +0.000000 0
+0.000000 +0.000000 0
+0.000000 +0.000000 0
+0.000000 +0.000000 0
+0.000000 +0.000000 0
+0.000000 +0.000000 0
+0.000000 +0.000000 0
+0.000000 +0.000000 0
+0.000000 +0.000000 0
+0.000000 +0.000000 0
+0.000000 +0.000000 0
+0.000000 +0.000000 0
+0.000000 +0.000000 0
+0.000000 +0.000000 0
+0.000000 +0.000000 0
+0.000000 +0.000000 0
+0.000000 +0.000000 0
+0.000000 +0.000000 0
+0.000000 +0.000000 0
+0.000000 +0.000000 0
+0.000000 +0.000000 0
+0.000000 +0.000000 0
+0.000000 +0.000000 0
+0.000000 +0.000000 0
+0.000000 +0.000000 0
+0.000000 +0.000000 0
+0.000000 +0.000000 0
+0.000000 +0.000000 0
+0.000000 +0.000000 0
+0.000000 +0.000000 0
+0.000000 +0.000000 0
+0.000000 +0.000000 0
+0.000000 +0.000000 0
+0.000000 +0.000000 0
+0.000000 +0.000000 0
+0.000000 +0.000000 0
+0.000000 +0.000000 0
+0.000000 +0.000000 0
+0.000000 +0.000000 0
+0.000000 +0.000000 0
+0.000000 +0.000000 0
+0.000000 +0.000000 0
+0.000000 +0.000000 0
+0.000000 +0.000000 0
+0.000000 +0.000000 0
+0.000000 +0.000000 0
+0.000000 +0.000000 0
+0.000000 +0.000000 0
+0.000000 +0.000000 0
+0.000000 +0.000000 0
+0.000000 +0.000000 0
+0.000000 +0.000000 0
+0.000000 +0.000000 0
+0.000000 +0.000000 0
+0.000000 +0.000000 0
+0.000000 +0.000000 0
+0.000000 +0.000000 0
+0.000000 +0.000000 0
+0.000000 +0.000000 0
+0.000000 +0.000000 0
+0.000000 +0.000000 0
+0.000000 +0.000000 0
+0.000000 +0.000000 0
+0.000000 +0.000000 0
+0.000000 +0.000000 0
+0.000000 +0.000000 0
+0.000000 +0.000000 0
+0.000000 +0.000000 0
+0.000000 +0.000000 0
+0.000000 +0.000000 0
+0.000000 +0.000000 0
+0.000000 +0.000000 0
+0.000000 +0.000000 0
+0.000000 +0.000000 0
+0.000000 +0.000000 0
+0.000000 +0.000000 0
+0.000000 +0.000000 0
+0.000000 +0.000000 0
+0.000000 +0.000000 0
+0.000000 +0.000000 0
+0.000000 +0.000000 0
+0.000000 +0.000000 0
-0.076409 -0.052657 0
-0.211697 -0.145889 0
-0.369767 -0.254822 0
-0.530636 -0.365684 0
-0.676536 -0.466229 0
-0.793167 -0.546605 0
-0.869938 -0.599511 0
-0.900590 -0.620635 0
-0.883498 -0.608856 0
-0.821630 -0.566220 0
-0.722134 -0.497653 0
-0.595580 -0.410439 0
-0.454911 -0.313498 0
-0.314207 -0.216533 0
-0.187359 -0.129117 0
-0.086776 -0.059801 0
-0.022243 -0.015329 0
-0.027719 -0.019102 0
-0.139774 -0.096324 0
-0.289199 -0.199299 0
-0.451097 -0.310870 0
-0.606473 -0.417946 0
-0.739305 -0.509486 0
-0.837058 -0.576852 0
-0.891252 -0.614199 0
-0.897928 -0.618800 0
-0.857788 -0.591138 0
-0.775964 -0.534750 0
-0.661433 -0.455821 0
-0.526096 -0.362555 0
-0.383629 -0.264375 0
-0.248183 -0.171033 0
-0.133063 -0.091699 0
-0.049496 -0.034110 0
-0.005583 -0.003848 0
+0.000000 +0.000000 0
+0.000000 +0.000000 0
+0.000000 +0.000000 0
+0.000000 +0.000000 0
+0.000000 +0.000000 0
+0.000000 +0.000000 0
+0.000000 +0.000000 0
+0.000000 +0.000000 0
+0.000000 +0.000000 0
+0.000000 +0.000000 0
+0.000000 +0.000000 0
+0.000000 +0.000000 0
+0.000000 +0.000000 0
+0.000000 +0.000000 0
+0.000000 +0.000000 0
+0.000000 +0.000000 0
+0.000000 +0.000000 0
+0.000000 +0.000000 0
+0.000000 +0.000000 0
+0.000000 +0.000000 0
+0.000000 +0.000000 0
+0.000000 +0.000000 0
+0.000000 +0.000000 0
+0.000000 +0.000000 0
+0.000000 +0.000000 0
+0.000000 +0.000000 0
+0.000000 +0.000000 0
+0.000000 +0.000000 0
+0.000000 +0.000000 0
+0.000000 +0.000000 0
+0.000000 +0.000000 0
+0.000000 +0.000000 0
+0.000000 +0.000000 0
+0.000000 +0.000000 0
+0.000000 +0.000000 0
+0.000000 +0.000000 0
+0.000000 +0.000000 0
+0.000000 +0.000000 0
+0.000000 +0.000000 0
+0.000000 +0.000000 0
+0.000000 +0.000000 0
+0.000000 +0.000000 0
+0.000000 +0.000000 0
+0.000000 +0.000000 0
+0.000000 +0.000000 0
+0.000000 +0.000000 0
+0.000000 +0.000000 0
+0.000000 +0.000000 0
+0.000000 +0.000000 0
+0.000000 +0.000000 0
+0.000000 +0.000000 0
+0.000000 +0.000000 0
+0.000000 +0.000000 0
+0.000000 +0.000000 0
+0.000000 +0.000000 0
+0.000000 +0.000000 0
+0.000000 +0.000000 0
+0.000000 +0.000000 0
+0.000000 +0.000000 0
+0.000000 +0.000000 0
+0.000000 +0.000000 0
+0.000000 +0.000000 0
+0.000000 +0.000000 0
+0.000000 +0.000000 0
+0.000000 +0.000000 0
+0.000000 +0.000000 0
+0.000000 +0.000000 0
+0.000000 +0.000000 0
+0.000000 +0.000000 0
+0.000000 +0.000000 0
+0.331101 +0.163719 0
+0.638200 +0.308090 0
+0.806274 +0.377893 0
+0.779923 +0.349874 0
+0.579626 +0.239651 0
+0.291230 +0.094865 0
+0.033265 -0.022670 0
-0.086742 -0.059777 0
+0.309654 +0.135945 0
+0.502581 +0.202033 0
+0.518163 +0.177210 0
+0.359797 +0.073819 0
+0.095416 -0.065068 0
-0.166219 -0.180100 0
-0.314167 -0.216505 0
-0.275501 -0.144266 0
+0.204435 +0.062090 0
+0.244177 +0.032548 0
+0.112547 -0.076763 0
-0.137755 -0.225251 0
-0.410100 -0.355256 0
-0.595545 -0.410415 0
-0.610136 -0.354920 0
-0.425484 -0.187385 0
+0.050376 -0.034373 0
-0.066152 -0.153985 0
-0.308909 -0.319928 0
-0.594546 -0.476295 0
-0.821609 -0.566205 0
-0.902015 -0.548978 0
-0.790528 -0.413963 0
-0.502507 -0.186506 0
-0.109699 -0.126729 0
-0.346622 -0.308406 0
-0.639883 -0.491365 0
-0.900584 -0.620630 0
-1.045354 -0.653829 0
-1.020279 -0.572799 0
-0.819441 -0.390579 0
-0.490546 -0.150452 0
-0.231442 -0.189297 0
-0.520471 -0.388364 0
-0.793167 -0.546605 0
-0.981162 -0.625765 0
-1.033830 -0.605411 0
-0.932544 -0.488332 0
-0.699985 -0.302511 0
-0.397425 -0.096138 0
-0.276069 -0.201238 0
-0.530619 -0.365672 0
-0.721505 -0.467533 0
-0.817514 -0.493849 0
-0.800221 -0.443069 0
-0.674960 -0.329419 0
-0.474743 -0.182849 0
-0.253823 -0.043199 0
-0.211464 -0.145729 0
-0.350474 -0.230539 0
-0.433249 -0.268771 0
-0.455959 -0.263090 0
-0.417504 -0.218630 0
-0.329168 -0.148049 0
-0.214851 -0.070612 0
-0.105407 -0.008184 0
+0.160069 +0.080078 0
+0.301794 +0.154295 0
+0.134958 +0.069391 0
+0.495856 +0.242342 0
+0.644003 +0.325852 0
+0.478043 +0.243132 0
+0.744800 +0.354666 0
+0.881337 +0.440911 0
+0.782788 +0.393937 0
+0.817903 +0.376030 0
+0.928732 +0.457819 0
+0.931140 +0.462690 0
+0.697389 +0.302644 0
+0.778897 +0.375415 0
+0.875805 +0.427501 0
+0.439305 +0.167786 0
+0.498878 +0.230494 0
+0.648676 +0.307320 0
+0.150943 +0.028898 0
+0.202761 +0.083052 0
+0.344986 +0.153024 0
-0.049096 -0.053664 0
+0.009001 -0.006125 0
+0.086765 +0.028001 0
-0.074486 -0.039003 0
-0.022210 -0.015306 0
+0.163721 +0.074307 0
+0.332656 +0.156859 0
+0.168790 +0.081179 0
+0.425800 +0.179753 0
+0.589360 +0.265520 0
+0.477128 +0.220232 0
+0.533968 +0.201033 0
+0.682441 +0.287945 0
+0.659652 +0.288699 0
+0.457813 +0.133241 0
+0.586460 +0.219192 0
+0.656794 +0.263813 0
+0.234608 +0.005255 0
+0.347446 +0.089915 0
+0.479485 +0.159036 0
-0.043127 -0.129354 0
+0.065401 -0.044593 0
+0.204363 +0.019408 0
-0.260270 -0.210786 0
-0.142228 -0.124316 0
-0.054543 -0.094616 0
-0.320334 -0.194456 0
-0.183385 -0.106548 0
-0.187320 -0.129090 0
-0.181071 -0.068105 0
-0.128537 -0.056788 0
+0.120083 +0.042006 0
+0.265565 +0.103427 0
+0.146818 +0.060790 0
+0.246738 +0.058775 0
+0.384728 +0.122500 0
+0.346941 +0.124528 0
+0.197800 -0.014091 0
+0.324078 +0.052974 0
+0.376521 +0.097796 0
-0.003093 -0.149509 0
+0.113458 -0.077379 0
+0.233237 -0.007455 0
-0.278131 -0.296354 0
-0.162058 -0.216339 0
-0.022982 -0.149578 0
-0.519940 -0.395115 0
-0.390735 -0.304239 0
-0.289227 -0.270122 0
-0.627533 -0.397493 0
-0.473069 -0.294589 0
-0.454872 -0.313472 0
-0.541810 -0.283720 0
-0.357797 -0.171450 0
-0.440742 -0.246706 0
-0.268429 -0.071681 0
-0.228747 -0.072919 0
+0.046504 -0.005116 0
+0.130960 +0.015046 0
+0.085791 +0.019484 0
+0.011641 -0.085396 0
+0.090467 -0.061711 0
+0.132353 -0.012838 0
-0.176197 -0.234432 0
-0.103020 -0.203746 0
+0.009476 -0.127289 0
-0.452639 -0.403047 0
-0.378648 -0.360917 0
-0.236564 -0.284137 0
-0.721597 -0.532670 0
-0.634296 -0.474031 0
-0.515720 -0.426534 0
-0.884264 -0.572472 0
-0.769170 -0.493265 0
-0.722106 -0.497634 0
-0.870808 -0.495453 0
-0.717855 -0.395070 0
-0.768715 -0.458950 0
-0.665144 -0.308855 0
-0.474639 -0.192136 0
-0.617953 -0.304430 0
-0.313818 -0.054909 0
-0.297446 -0.065274 0
-0.035818 -0.053612 0
-0.031737 -0.082748 0
+0.005004 -0.030061 0
-0.216005 -0.213847 0
-0.215225 -0.238119 0
-0.107198 -0.153969 0
-0.491610 -0.403303 0
-0.491873 -0.417913 0
-0.347042 -0.328526 0
-0.779932 -0.565803 0
-0.772191 -0.564576 0
-0.637713 -0.498915 0
-0.991783 -0.651054 0
-0.961238 -0.627043 0
-0.883485 -0.608847 0
-1.055687 -0.627543 0
-0.987042 -0.575531 0
-0.997420 -0.616234 0
-0.940057 -0.492265 0
-0.824701 -0.411913 0
-0.928678 -0.506252 0
-0.666119 -0.274088 0
-0.507744 -0.171952 0
-0.681228 -0.298066 0
-0.305203 -0.028119 0
-0.316440 -0.042019 0
-0.104042 -0.089996 0
-0.177981 -0.163179 0
-0.073083 -0.074101 0
-0.373375 -0.290987 0
-0.451045 -0.359847 0
-0.307053 -0.260749 0
-0.663392 -0.475333 0
-0.742836 -0.535349 0
-0.599798 -0.453546 0
-0.901499 -0.597832 0
-0.971715 -0.641330 0
-0.869936 -0.599510 0
-1.026483 -0.628449 0
-1.069673 -0.646043 0
-1.040247 -0.657438 0
-1.002019 -0.557783 0
-1.001142 -0.542552 0
-1.056734 -0.607129 0
-0.829622 -0.401366 0
-0.776449 -0.352826 0
-0.905748 -0.456001 0
-0.552475 -0.198380 0
-0.452688 -0.124344 0
-0.621851 -0.239733 0
-0.245912 -0.003013 0
-0.281045 -0.014682 0
-0.137201 -0.102744 0
-0.265480 -0.202667 0
-0.126173 -0.099940 0
-0.409079 -0.290095 0
-0.548499 -0.390935 0
-0.409006 -0.301551 0
-0.636140 -0.425449 0
-0.786381 -0.523767 0
-0.676534 -0.466228 0
-0.782963 -0.490560 0
-0.928502 -0.575356 0
-0.872035 -0.560756 0
-0.823350 -0.477606 0
-0.941495 -0.535816 0
-0.952224 -0.566853 0
-0.749645 -0.392557 0
-0.820744 -0.415206 0
-0.896760 -0.484175 0
-0.581186 -0.257888 0
-0.596611 -0.244202 0
-0.718395 -0.333395 0
-0.363018 -0.109538 0
-0.329298 -0.068326 0
-0.463803 -0.153731 0
-0.154815 +0.011268 0
-0.202650 +0.005860 0
-0.116879 -0.081999 0
-0.259439 -0.183042 0
-0.134921 -0.097233 0
-0.288232 -0.194381 0
-0.464485 -0.311915 0
-0.369763 -0.254819 0
-0.398981 -0.255241 0
-0.601451 -0.380807 0
-0.542334 -0.354057 0
-0.452419 -0.271256 0
-0.656114 -0.387167 0
-0.639874 -0.391818 0
-0.443999 -0.245101 0
-0.620993 -0.334535 0
-0.649604 -0.367575 0
-0.378330 -0.185519 0
-0.506744 -0.237956 0
-0.572270 -0.290327 0
-0.273393 -0.108822 0
-0.344072 -0.123431 0
-0.428891 -0.181003 0
-0.157563 -0.036195 0
-0.177108 -0.022679 0
-0.258164 -0.069335 0
-0.061760 +0.011123 0
-0.106438 +0.012956 0
-0.126719 -0.085874 0
-0.075831 -0.052258 0
-0.192687 -0.124595 0
-0.163720 -0.108574 0
-0.227944 -0.138790 0
-0.214137 -0.134582 0
-0.231719 -0.130760 0
-0.233826 -0.137403 0
-0.205176 -0.104231 0
-0.221925 -0.119428 0
-0.155868 -0.066667 0
-0.182640 -0.086227 0
-0.097140 -0.028423 0
-0.126701 -0.046925 0
-0.044664 -0.000548 0
-0.069189 -0.012540 0
-0.024956 +0.006415 0
+0.062487 +0.032239 0
+0.115057 +0.059768 0
+0.077700 +0.039113 0
+0.149872 +0.076111 0
+0.245331 +0.122016 0
+0.320167 +0.161206 0
+0.215783 +0.110626 0
+0.275461 +0.142672 0
+0.390022 +0.198880 0
+0.454426 +0.234770 0
+0.415338 +0.204189 0
+0.491747 +0.245575 0
+0.570762 +0.277275 0
+0.646750 +0.320287 0
+0.563434 +0.285830 0
+0.629657 +0.324510 0
+0.717708 +0.362185 0
+0.782685 +0.402379 0
+0.696675 +0.334102 0
+0.770032 +0.377913 0
+0.781605 +0.369378 0
+0.850341 +0.413111 0
+0.837745 +0.420385 0
+0.898729 +0.460814 0
+0.912682 +0.455114 0
+0.967465 +0.494595 0
+0.818437 +0.380118 0
+0.881045 +0.422964 0
+0.804920 +0.365849 0
+0.860541 +0.407155 0
+0.936491 +0.463583 0
+0.983578 +0.501123 0
+0.908300 +0.445677 0
+0.946999 +0.480526 0
+0.743742 +0.328610 0
+0.792237 +0.367923 0
+0.642189 +0.272720 0
+0.684122 +0.309804 0
+0.832285 +0.403872 0
+0.862719 +0.435555 0
+0.717165 +0.342950 0
+0.740196 +0.371262 0
+0.511394 +0.204352 0
+0.547942 +0.239175 0
+0.365261 +0.130948 0
+0.398053 +0.163641 0
+0.575294 +0.269509 0
+0.592385 +0.294482 0
+0.421457 +0.191325 0
+0.434472 +0.213173 0
+0.219144 +0.060518 0
+0.250056 +0.091309 0
+0.088406 +0.000881 0
+0.119328 +0.030027 0
+0.271464 +0.116611 0
+0.282433 +0.135654 0
+0.140657 +0.053241 0
+0.151530 +0.069828 0
-0.013023 -0.041069 0
+0.019577 -0.013361 0
-0.073955 -0.060025 0
-0.038443 -0.033664 0
+0.042479 +0.008011 0
+0.054891 +0.022436 0
-0.012787 -0.014005 0
+0.002285 -0.001568 0
-0.087008 -0.052790 0
-0.047954 -0.027854 0
-0.049342 -0.018612 0
-0.018997 -0.009949 0
+0.084137 +0.040862 0
+0.166326 +0.081736 0
+0.083308 +0.038395 0
+0.167881 +0.078673 0
+0.239724 +0.107073 0
+0.324044 +0.148028 0
+0.252279 +0.120158 0
+0.335172 +0.162203 0
+0.408197 +0.190492 0
+0.490863 +0.233799 0
+0.372143 +0.160364 0
+0.455274 +0.202094 0
+0.469602 +0.193757 0
+0.550347 +0.236123 0
+0.537986 +0.245448 0
+0.618908 +0.289703 0
+0.630219 +0.280054 0
+0.707785 +0.324752 0
+0.524184 +0.204479 0
+0.601398 +0.247232 0
+0.531920 +0.191868 0
+0.604761 +0.234755 0
+0.677171 +0.291346 0
+0.750016 +0.335946 0
+0.675560 +0.278683 0
+0.742787 +0.322707 0
+0.493233 +0.157501 0
+0.561332 +0.200335 0
+0.412941 +0.105104 0
+0.476484 +0.147806 0
+0.626815 +0.243805 0
+0.688129 +0.286906 0
+0.536908 +0.190681 0
+0.592650 +0.232672 0
+0.299829 +0.040237 0
+0.359563 +0.082856 0
+0.165864 -0.030175 0
+0.223032 +0.012517 0
+0.415768 +0.125139 0
+0.466878 +0.165998 0
+0.276346 +0.054338 0
+0.324245 +0.094175 0
+0.025119 -0.098456 0
+0.081320 -0.055463 0
-0.107509 -0.156867 0
-0.050501 -0.113327 0
+0.133407 -0.013897 0
+0.179827 +0.025119 0
+0.002160 -0.071791 0
+0.048929 -0.033374 0
-0.217655 -0.198312 0
-0.158108 -0.154033 0
-0.292820 -0.217007 0
-0.229262 -0.171916 0
-0.103158 -0.112351 0
-0.054341 -0.074363 0
-0.170616 -0.130035 0
-0.118404 -0.092424 0
-0.323544 -0.209046 0
-0.254971 -0.163255 0
-0.304332 -0.172813 0
-0.230366 -0.126661 0
-0.191725 -0.121299 0
-0.135308 -0.084187 0
-0.162269 -0.084974 0
-0.101515 -0.048695 0
-0.234225 -0.109207 0
-0.155226 -0.063281 0
-0.117000 -0.021647 0
-0.082771 -0.022443 0
+0.076271 +0.032411 0
+0.156656 +0.068313 0
+0.064020 +0.023597 0
+0.134572 +0.051982 0
+0.167218 +0.054939 0
+0.236875 +0.083688 0
+0.210365 +0.084640 0
+0.290033 +0.120986 0
+0.311417 +0.116829 0
+0.389476 +0.153749 0
+0.231128 +0.063388 0
+0.299105 +0.092699 0
+0.251113 +0.048428 0
+0.316739 +0.078466 0
+0.371550 +0.126440 0
+0.447072 +0.163951 0
+0.386381 +0.112882 0
+0.458616 +0.150956 0
+0.226262 +0.011557 0
+0.289130 +0.042491 0
+0.159590 -0.043758 0
+0.219684 -0.011715 0
+0.355571 +0.077669 0
+0.424124 +0.116301 0
+0.282953 +0.024366 0
+0.347900 +0.063624 0
+0.057878 -0.112297 0
+0.115643 -0.078864 0
-0.068845 -0.187479 0
-0.012489 -0.152299 0
+0.176257 -0.041661 0
+0.238188 -0.001621 0
+0.046470 -0.113674 0
+0.106465 -0.072608 0
-0.208112 -0.261869 0
-0.151824 -0.224531 0
-0.346059 -0.327790 0
-0.288192 -0.287863 0
-0.093109 -0.184127 0
-0.033577 -0.141727 0
-0.228035 -0.245307 0
-0.167247 -0.201253 0
-0.468609 -0.377959 0
-0.407375 -0.335051 0
-0.562700 -0.406125 0
-0.496376 -0.359954 0
-0.343997 -0.290017 0
-0.280186 -0.244038 0
-0.428112 -0.312231 0
-0.359679 -0.264178 0
-0.617463 -0.407639 0
-0.544600 -0.358106 0
-0.625225 -0.379919 0
-0.544859 -0.327168 0
-0.470118 -0.307670 0
-0.395841 -0.257578 0
-0.463351 -0.274241 0
-0.382576 -0.222389 0
-0.582276 -0.322746 0
-0.494092 -0.267221 0
-0.489301 -0.238391 0
-0.393750 -0.180847 0
-0.405434 -0.212308 0
-0.318209 -0.159248 0
-0.298588 -0.124754 0
-0.205738 -0.071317 0
-0.351442 -0.131519 0
-0.249780 -0.073016 0
-0.177975 -0.008895 0
-0.149555 -0.016824 0
+0.047669 +0.012703 0
+0.103756 +0.031130 0
+0.028473 +0.000549 0
+0.066632 +0.007355 0
+0.053873 -0.016818 0
+0.091236 -0.009567 0
+0.113756 +0.020286 0
+0.168948 +0.039091 0
+0.137205 +0.003938 0
+0.190864 +0.023410 0
+0.036211 -0.057377 0
+0.072300 -0.049298 0
-0.022713 -0.117813 0
+0.011882 -0.108479 0
+0.116661 -0.034869 0
+0.168357 -0.014425 0
+0.054472 -0.092738 0
+0.104093 -0.070983 0
-0.117676 -0.193128 0
-0.084453 -0.182064 0
-0.240407 -0.277006 0
-0.208020 -0.263670 0
-0.043422 -0.164569 0
+0.004417 -0.141109 0
-0.167905 -0.243916 0
-0.121105 -0.218288 0
-0.380188 -0.362263 0
-0.347662 -0.346047 0
-0.524653 -0.441369 0
-0.490604 -0.421611 0
-0.307379 -0.323463 0
-0.260436 -0.295144 0
-0.448679 -0.395586 0
-0.400049 -0.364024 0
-0.660737 -0.507006 0
-0.623459 -0.483029 0
-0.775701 -0.552623 0
-0.733318 -0.523797 0
-0.578143 -0.452954 0
-0.526052 -0.417613 0
-0.682753 -0.489132 0
-0.625376 -0.449561 0
-0.858171 -0.572966 0
-0.808834 -0.538784 0
-0.899113 -0.564528 0
-0.841217 -0.524697 0
-0.751257 -0.499135 0
-0.686928 -0.455047 0
-0.775177 -0.479896 0
-0.702607 -0.431242 0
-0.892651 -0.525906 0
-0.825050 -0.480419 0
-0.836662 -0.457991 0
-0.758860 -0.407196 0
-0.749617 -0.430597 0
-0.668087 -0.377629 0
-0.673792 -0.352835 0
-0.583305 -0.296147 0
-0.733078 -0.364011 0
-0.645360 -0.308641 0
-0.587856 -0.249369 0
-0.491358 -0.190544 0
-0.551219 -0.250593 0
-0.452591 -0.191131 0
-0.389548 -0.130019 0
-0.284419 -0.069056 0
-0.410608 -0.121314 0
-0.307304 -0.060498 0
-0.213910 +0.011566 0
-0.200028 +0.000990 0
+0.007807 -0.011998 0
+0.025881 -0.017638 0
-0.012883 -0.024062 0
-0.015646 -0.042101 0
-0.068270 -0.088036 0
-0.071572 -0.105481 0
-0.008240 -0.053781 0
+0.009175 -0.058893 0
-0.064928 -0.116353 0
-0.048511 -0.120474 0
-0.159243 -0.168923 0
-0.163340 -0.185269 0
-0.278856 -0.260632 0
-0.283735 -0.275326 0
-0.157624 -0.194821 0
-0.142268 -0.197436 0