# vtk DataFile Version 2.0
MyTitle
ASCII
DATASET UNSTRUCTURED_GRID
POINTS 3025 double
1.000000 0.000000 0.000000
0.500000 0.866025 0.000000
0.500000 -0.866025 0.000000
-1.000000 0.000000 0.000000
-0.500000 -0.866025 0.000000
-0.500000 0.866025 0.000000
0.000000 0.000000 0.000000
0.972222 0.048113 0.000000
0.944444 0.096225 0.000000
0.916667 0.144338 0.000000
0.888889 0.192450 0.000000
0.861111 0.240563 0.000000
0.833333 0.288675 0.000000
0.805556 0.336788 0.000000
0.777778 0.384900 0.000000
0.750000 0.433013 0.000000
0.722222 0.481125 0.000000
0.694444 0.529238 0.000000
0.666667 0.577350 0.000000
0.638889 0.625463 0.000000
0.611111 0.673575 0.000000
0.583333 0.721688 0.000000
0.555556 0.769800 0.000000
0.527778 0.817913 0.000000
0.986111 0.024056 0.000000
0.958333 0.072169 0.000000
0.930556 0.120281 0.000000
0.902778 0.168394 0.000000
0.875000 0.216506 0.000000
0.847222 0.264619 0.000000
0.819444 0.312731 0.000000
0.791667 0.360844 0.000000
0.763889 0.408956 0.000000
0.736111 0.457069 0.000000
0.708333 0.505181 0.000000
0.680556 0.553294 0.000000
0.652778 0.601407 0.000000
0.625000 0.649519 0.000000
0.597222 0.697632 0.000000
0.569444 0.745744 0.000000
0.541667 0.793857 0.000000
0.513889 0.841969 0.000000
0.472222 0.817913 0.000000
0.444444 0.769800 0.000000
0.416667 0.721688 0.000000
0.388889 0.673575 0.000000
0.361111 0.625463 0.000000
0.333333 0.577350 0.000000
0.305556 0.529238 0.000000
0.277778 0.481125 0.000000
0.250000 0.433013 0.000000
0.222222 0.384900 0.000000
0.194444 0.336788 0.000000
0.166667 0.288675 0.000000
0.138889 0.240563 0.000000
0.111111 0.192450 0.000000
0.083333 0.144338 0.000000
0.055556 0.096225 0.000000
0.027778 0.048113 0.000000
0.486111 0.841969 0.000000
0.458333 0.793857 0.000000
0.430556 0.745744 0.000000
0.402778 0.697632 0.000000
0.375000 0.649519 0.000000
0.347222 0.601407 0.000000
0.319444 0.553294 0.000000
0.291667 0.505181 0.000000
0.263889 0.457069 0.000000
0.236111 0.408956 0.000000
0.208333 0.360844 0.000000
0.180556 0.312731 0.000000
0.152778 0.264619 0.000000
0.125000 0.216506 0.000000
0.097222 0.168394 0.000000
0.069444 0.120281 0.000000
0.041667 0.072169 0.000000
0.013889 0.024056 0.000000
0.027778 -0.048113 0.000000
0.055556 -0.096225 0.000000
0.083333 -0.144338 0.000000
0.111111 -0.192450 0.000000
0.138889 -0.240563 0.000000
0.166667 -0.288675 0.000000
0.194444 -0.336788 0.000000
0.222222 -0.384900 0.000000
0.250000 -0.433013 0.000000
0.277778 -0.481125 0.000000
0.305556 -0.529238 0.000000
0.333333 -0.577350 0.000000
0.361111 -0.625463 0.000000
0.388889 -0.673575 0.000000
0.416667 -0.721688 0.000000
0.444444 -0.769800 0.000000
0.472222 -0.817913 0.000000
0.013889 -0.024056 0.000000
0.041667 -0.072169 0.000000
0.069444 -0.120281 0.000000
0.097222 -0.168394 0.000000
0.125000 -0.216506 0.000000
0.152778 -0.264619 0.000000
0.180556 -0.312731 0.000000
0.208333 -0.360844 0.000000
0.236111 -0.408956 0.000000
0.263889 -0.457069 0.000000
0.291667 -0.505181 0.000000
0.319444 -0.553294 0.000000
0.347222 -0.601407 0.000000
0.375000 -0.649519 0.000000
0.402778 -0.697632 0.000000
0.430556 -0.745744 0.000000
0.458333 -0.793857 0.000000
0.486111 -0.841969 0.000000
0.527778 -0.817913 0.000000
0.555556 -0.769800 0.000000
0.583333 -0.721688 0.000000
0.611111 -0.673575 0.000000
0.638889 -0.625463 0.000000
0.666667 -0.577350 0.000000
0.694444 -0.529238 0.000000
0.722222 -0.481125 0.000000
0.750000 -0.433013 0.000000
0.777778 -0.384900 0.000000
0.805556 -0.336788 0.000000
0.833333 -0.288675 0.000000
0.861111 -0.240563 0.000000
0.888889 -0.192450 0.000000
0.916667 -0.144338 0.000000
0.944444 -0.096225 0.000000
0.972222 -0.048113 0.000000
0.513889 -0.841969 0.000000
0.541667 -0.793857 0.000000
0.569444 -0.745744 0.000000
0.597222 -0.697632 0.000000
0.625000 -0.649519 0.000000
0.652778 -0.601407 0.000000
0.680556 -0.553294 0.000000
0.708333 -0.505181 0.000000
0.736111 -0.457069 0.000000
0.763889 -0.408956 0.000000
0.791667 -0.360844 0.000000
0.819444 -0.312731 0.000000
0.847222 -0.264619 0.000000
0.875000 -0.216506 0.000000
0.902778 -0.168394 0.000000
0.930556 -0.120281 0.000000
0.958333 -0.072169 0.000000
0.986111 -0.024056 0.000000
0.444444 0.866025 0.000000
0.388889 0.866025 0.000000
0.333333 0.866025 0.000000
0.277778 0.866025 0.000000
0.222222 0.866025 0.000000
0.166667 0.866025 0.000000
0.111111 0.866025 0.000000
0.055556 0.866025 0.000000
0.000000 0.866025 0.000000
-0.055556 0.866025 0.000000
-0.111111 0.866025 0.000000
-0.166667 0.866025 0.000000
-0.222222 0.866025 0.000000
-0.277778 0.866025 0.000000
-0.333333 0.866025 0.000000
-0.388889 0.866025 0.000000
-0.444444 0.866025 0.000000
0.472222 0.866025 0.000000
0.416667 0.866025 0.000000
0.361111 0.866025 0.000000
0.305556 0.866025 0.000000
0.250000 0.866025 0.000000
0.194444 0.866025 0.000000
0.138889 0.866025 0.000000
0.083333 0.866025 0.000000
0.027778 0.866025 0.000000
-0.027778 0.866025 0.000000
-0.083333 0.866025 0.000000
-0.138889 0.866025 0.000000
-0.194444 0.866025 0.000000
-0.250000 0.866025 0.000000
-0.305556 0.866025 0.000000
-0.361111 0.866025 0.000000
-0.416667 0.866025 0.000000
-0.472222 0.866025 0.000000
-0.527778 0.817913 0.000000
-0.555556 0.769800 0.000000
-0.583333 0.721688 0.000000
-0.611111 0.673575 0.000000
-0.638889 0.625463 0.000000
-0.666667 0.577350 0.000000
-0.694444 0.529238 0.000000
-0.722222 0.481125 0.000000
-0.750000 0.433013 0.000000
-0.777778 0.384900 0.000000
-0.805556 0.336788 0.000000
-0.833333 0.288675 0.000000
-0.861111 0.240563 0.000000
-0.888889 0.192450 0.000000
-0.916667 0.144338 0.000000
-0.944444 0.096225 0.000000
-0.972222 0.048113 0.000000
-0.513889 0.841969 0.000000
-0.541667 0.793857 0.000000
-0.569444 0.745744 0.000000
-0.597222 0.697632 0.000000
-0.625000 0.649519 0.000000
-0.652778 0.601407 0.000000
-0.680556 0.553294 0.000000
-0.708333 0.505181 0.000000
-0.736111 0.457069 0.000000
-0.763889 0.408956 0.000000
-0.791667 0.360844 0.000000
-0.819444 0.312731 0.000000
-0.847222 0.264619 0.000000
-0.875000 0.216506 0.000000
-0.902778 0.168394 0.000000
-0.930556 0.120281 0.000000
-0.958333 0.072169 0.000000
-0.986111 0.024056 0.000000
-0.944444 0.000000 0.000000
-0.888889 0.000000 0.000000
-0.833333 0.000000 0.000000
-0.777778 0.000000 0.000000
-0.722222 0.000000 0.000000
-0.666667 0.000000 0.000000
-0.611111 0.000000 0.000000
-0.555556 0.000000 0.000000
-0.500000 0.000000 0.000000
-0.444444 0.000000 0.000000
-0.388889 0.000000 0.000000
-0.333333 0.000000 0.000000
-0.277778 0.000000 0.000000
-0.222222 0.000000 0.000000
-0.166667 0.000000 0.000000
-0.111111 0.000000 0.000000
-0.055556 0.000000 0.000000
-0.972222 0.000000 0.000000
-0.916667 0.000000 0.000000
-0.861111 0.000000 0.000000
-0.805556 0.000000 0.000000
-0.750000 0.000000 0.000000
-0.694444 0.000000 0.000000
-0.638889 0.000000 0.000000
-0.583333 0.000000 0.000000
-0.527778 0.000000 0.000000
-0.472222 0.000000 0.000000
-0.416667 0.000000 0.000000
-0.361111 0.000000 0.000000
-0.305556 0.000000 0.000000
-0.250000 0.000000 0.000000
-0.194444 0.000000 0.000000
-0.138889 0.000000 0.000000
-0.083333 0.000000 0.000000
-0.027778 0.000000 0.000000
-0.972222 -0.048113 0.000000
-0.944444 -0.096225 0.000000
-0.916667 -0.144338 0.000000
-0.888889 -0.192450 0.000000
-0.861111 -0.240563 0.000000
-0.833333 -0.288675 0.000000
-0.805556 -0.336788 0.000000
-0.777778 -0.384900 0.000000
-0.750000 -0.433013 0.000000
-0.722222 -0.481125 0.000000
-0.694444 -0.529238 0.000000
-0.666667 -0.577350 0.000000
-0.638889 -0.625463 0.000000
-0.611111 -0.673575 0.000000
-0.583333 -0.721688 0.000000
-0.555556 -0.769800 0.000000
-0.527778 -0.817913 0.000000
-0.986111 -0.024056 0.000000
-0.958333 -0.072169 0.000000
-0.930556 -0.120281 0.000000
-0.902778 -0.168394 0.000000
-0.875000 -0.216506 0.000000
-0.847222 -0.264619 0.000000
-0.819444 -0.312731 0.000000
-0.791667 -0.360844 0.000000
-0.763889 -0.408956 0.000000
-0.736111 -0.457069 0.000000
-0.708333 -0.505181 0.000000
-0.680556 -0.553294 0.000000
-0.652778 -0.601407 0.000000
-0.625000 -0.649519 0.000000
-0.597222 -0.697632 0.000000
-0.569444 -0.745744 0.000000
-0.541667 -0.793857 0.000000
-0.513889 -0.841969 0.000000
-0.444444 -0.866025 0.000000
-0.388889 -0.866025 0.000000
-0.333333 -0.866025 0.000000
-0.277778 -0.866025 0.000000
-0.222222 -0.866025 0.000000
-0.166667 -0.866025 0.000000
-0.111111 -0.866025 0.000000
-0.055556 -0.866025 0.000000
-0.000000 -0.866025 0.000000
0.055556 -0.866025 0.000000
0.111111 -0.866025 0.000000
0.166667 -0.866025 0.000000
0.222222 -0.866025 0.000000
0.277778 -0.866025 0.000000
0.333333 -0.866025 0.000000
0.388889 -0.866025 0.000000
0.444444 -0.866025 0.000000
-0.472222 -0.866025 0.000000
-0.416667 -0.866025 0.000000
-0.361111 -0.866025 0.000000
-0.305556 -0.866025 0.000000
-0.250000 -0.866025 0.000000
-0.194444 -0.866025 0.000000
-0.138889 -0.866025 0.000000
-0.083333 -0.866025 0.000000
-0.027778 -0.866025 0.000000
0.027778 -0.866025 0.000000
0.083333 -0.866025 0.000000
0.138889 -0.866025 0.000000
0.194444 -0.866025 0.000000
0.250000 -0.866025 0.000000
0.305556 -0.866025 0.000000
0.361111 -0.866025 0.000000
0.416667 -0.866025 0.000000
0.472222 -0.866025 0.000000
0.500000 -0.673575 0.000000
0.444444 -0.577350 0.000000
0.388889 -0.481125 0.000000
0.333333 -0.384900 0.000000
0.277778 -0.288675 0.000000
0.222222 -0.192450 0.000000
0.166667 -0.096225 0.000000
0.111111 0.000000 0.000000
0.555556 -0.577350 0.000000
0.500000 -0.481125 0.000000
0.444444 -0.384900 0.000000
0.388889 -0.288675 0.000000
0.333333 -0.192450 0.000000
0.277778 -0.096225 0.000000
0.222222 0.000000 0.000000
0.166667 0.096225 0.000000
0.611111 -0.481125 0.000000
0.555556 -0.384900 0.000000
0.500000 -0.288675 0.000000
0.444444 -0.192450 0.000000
0.388889 -0.096225 0.000000
0.333333 0.000000 0.000000
0.277778 0.096225 0.000000
0.222222 0.192450 0.000000
0.666667 -0.384900 0.000000
0.611111 -0.288675 0.000000
0.555556 -0.192450 0.000000
0.500000 -0.096225 0.000000
0.444444 0.000000 0.000000
0.388889 0.096225 0.000000
0.333333 0.192450 0.000000
0.277778 0.288675 0.000000
0.722222 -0.288675 0.000000
[...]
POINT_DATA 3025
VECTORS sol double
+0.000000 +0.000000 0
+0.000000 +0.000000 0
+0.000000 +0.000000 0
+0.000000 +0.000000 0
+0.000000 +0.000000 0
+0.000000 +0.000000 0
+0.000000 +0.000000 0
+0.000000 +0.000000 0
+0.000000 +0.000000 0
+0.000000 +0.000000 0
+0.000000 +0.000000 0
+0.000000 +0.000000 0
+0.000000 +0.000000 0
+0.000000 +0.000000 0
+0.000000 +0.000000 0
+0.000000 +0.000000 0
+0.000000 +0.000000 0
+0.000000 +0.000000 0
+0.000000 +0.000000 0
+0.000000 +0.000000 0
+0.000000 +0.000000 0
+0.000000 +0.000000 0
+0.000000 +0.000000 0
+0.000000 +0.000000 0
+0.000000 +0.000000 0
+0.000000 +0.000000 0
+0.000000 +0.000000 0
+0.000000 +0.000000 0
+0.000000 +0.000000 0
+0.000000 +0.000000 0
+0.000000 +0.000000 0
+0.000000 +0.000000 0
+0.000000 +0.000000 0
+0.000000 +0.000000 0
+0.000000 +0.000000 0
+0.000000 +0.000000 0
+0.000000 +0.000000 0
+0.000000 +0.000000 0
+0.000000 +0.000000 0
+0.000000 +0.000000 0
+0.000000 +0.000000 0
+0.000000 +0.000000 0
+0.054657 +0.051728 0
+0.151431 +0.143315 0
+0.264501 +0.250326 0
+0.379574 +0.359232 0
+0.483938 +0.458004 0
+0.567367 +0.536961 0
+0.622282 +0.588934 0
+0.644209 +0.609685 0
+0.631982 +0.598114 0
+0.587727 +0.556230 0
+0.516555 +0.488873 0
+0.426029 +0.403198 0
+0.325406 +0.307967 0
+0.224758 +0.212713 0
+0.134021 +0.126839 0
+0.062073 +0.058746 0
+0.015911 +0.015058 0
+0.019828 +0.018765 0
+0.099983 +0.094625 0
+0.206869 +0.195783 0
+0.322678 +0.305386 0
+0.433821 +0.410572 0
+0.528838 +0.500497 0
+0.598763 +0.566674 0
+0.637529 +0.603363 0
+0.642304 +0.607883 0
+0.613591 +0.580708 0
+0.555061 +0.525315 0
+0.473135 +0.447779 0
+0.376326 +0.356158 0
+0.274417 +0.259710 0
+0.177530 +0.168016 0
+0.095182 +0.090082 0
+0.035406 +0.033508 0
+0.003994 +0.003780 0
+0.002992 -0.024838 0
+0.011674 -0.096900 0
+0.025204 -0.209217 0
+0.042269 -0.350863 0
+0.061197 -0.507982 0
+0.080120 -0.665061 0
+0.097145 -0.806379 0
+0.110530 -0.917483 0
+0.118853 -0.986569 0
+0.121152 -1.005655 0
+0.117028 -0.971427 0
+0.106701 -0.885700 0
+0.091011 -0.755462 0
+0.071384 -0.592542 0
+0.049743 -0.412905 0
+0.028479 -0.236394 0
+0.010279 -0.085323 0
+0.000751 -0.006235 0
+0.006659 -0.055271 0
+0.017900 -0.148587 0
+0.033387 -0.277136 0
+0.051608 -0.428384 0
+0.070773 -0.587471 0
+0.088979 -0.738597 0
+0.104387 -0.866490 0
+0.115394 -0.957859 0
+0.120794 -1.002682 0
+0.119896 -0.995227 0
+0.112605 -0.934711 0
+0.099455 -0.825554 0
+0.081586 -0.677225 0
+0.060684 -0.503723 0
+0.038905 -0.322937 0
+0.018803 -0.156080 0
+0.003729 -0.030953 0
+0.000000 +0.000000 0
+0.000000 +0.000000 0
+0.000000 +0.000000 0
+0.000000 +0.000000 0
+0.000000 +0.000000 0
+0.000000 +0.000000 0
+0.000000 +0.000000 0
+0.000000 +0.000000 0
+0.000000 +0.000000 0
+0.000000 +0.000000 0
+0.000000 +0.000000 0
+0.000000 +0.000000 0
+0.000000 +0.000000 0
+0.000000 +0.000000 0
+0.000000 +0.000000 0
+0.000000 +0.000000 0
+0.000000 +0.000000 0
+0.000000 +0.000000 0
+0.000000 +0.000000 0
+0.000000 +0.000000 0
+0.000000 +0.000000 0
+0.000000 +0.000000 0
+0.000000 +0.000000 0
+0.000000 +0.000000 0
+0.000000 +0.000000 0
+0.000000 +0.000000 0
+0.000000 +0.000000 0
+0.000000 +0.000000 0
+0.000000 +0.000000 0
+0.000000 +0.000000 0
+0.000000 +0.000000 0
+0.000000 +0.000000 0
+0.000000 +0.000000 0
+0.000000 +0.000000 0
+0.000000 +0.000000 0
+0.000000 +0.000000 0
+0.000000 +0.000000 0
+0.000000 +0.000000 0
+0.000000 +0.000000 0
+0.000000 +0.000000 0
+0.000000 +0.000000 0
+0.000000 +0.000000 0
+0.000000 +0.000000 0
+0.000000 +0.000000 0
+0.000000 +0.000000 0
+0.000000 +0.000000 0
+0.000000 +0.000000 0
+0.000000 +0.000000 0
+0.000000 +0.000000 0
+0.000000 +0.000000 0
+0.000000 +0.000000 0
+0.000000 +0.000000 0
+0.000000 +0.000000 0
+0.000000 +0.000000 0
+0.000000 +0.000000 0
+0.000000 +0.000000 0
+0.000000 +0.000000 0
+0.000000 +0.000000 0
+0.000000 +0.000000 0
+0.000000 +0.000000 0
+0.000000 +0.000000 0
+0.000000 +0.000000 0
+0.000000 +0.000000 0
+0.000000 +0.000000 0
+0.000000 +0.000000 0
+0.000000 +0.000000 0
+0.000000 +0.000000 0
+0.000000 +0.000000 0
+0.000000 +0.000000 0
+0.000000 +0.000000 0
+0.000000 +0.000000 0
+0.000000 +0.000000 0
+0.000000 +0.000000 0
+0.000000 +0.000000 0
+0.000000 +0.000000 0
+0.000000 +0.000000 0
+0.000000 +0.000000 0
+0.000000 +0.000000 0
+0.000000 +0.000000 0
+0.000000 +0.000000 0
+0.000000 +0.000000 0
+0.000000 +0.000000 0
+0.000000 +0.000000 0
+0.000000 +0.000000 0
+0.000000 +0.000000 0
+0.000000 +0.000000 0
+0.000000 +0.000000 0
+0.000000 +0.000000 0
+0.000000 +0.000000 0
+0.000000 +0.000000 0
+0.000000 +0.000000 0
+0.000000 +0.000000 0
+0.000000 +0.000000 0
+0.000000 +0.000000 0
+0.000000 +0.000000 0
+0.000000 +0.000000 0
+0.000000 +0.000000 0
+0.000000 +0.000000 0
+0.000000 +0.000000 0
+0.000000 +0.000000 0
+0.000000 +0.000000 0
+0.000000 +0.000000 0
+0.000000 +0.000000 0
+0.000000 +0.000000 0
+0.000000 +0.000000 0
-0.064936 +0.033595 0
-0.179909 +0.093079 0
-0.314244 +0.162579 0
-0.450958 +0.233309 0
-0.574949 +0.297458 0
-0.674068 +0.348738 0
-0.739311 +0.382493 0
-0.765361 +0.395970 0
-0.750835 +0.388455 0
-0.698256 +0.361253 0
-0.613700 +0.317507 0
-0.506149 +0.261863 0
-0.386603 +0.200014 0
-0.267027 +0.138150 0
-0.159226 +0.082378 0
-0.073746 +0.038154 0
-0.018903 +0.009780 0
-0.023557 +0.012187 0
-0.118786 +0.061456 0
-0.245774 +0.127154 0
-0.383362 +0.198338 0
-0.515407 +0.266653 0
-0.628293 +0.325056 0
-0.711368 +0.368036 0
-0.757424 +0.391864 0
-0.763098 +0.394800 0
-0.728985 +0.377151 0
-0.659448 +0.341175 0
-0.562114 +0.290818 0
-0.447099 +0.231313 0
-0.326024 +0.168673 0
-0.210917 +0.109121 0
-0.113083 +0.058505 0
-0.042064 +0.021763 0
-0.004745 +0.002455 0
+0.000000 +0.000000 0
+0.000000 +0.000000 0
+0.000000 +0.000000 0
+0.000000 +0.000000 0
+0.000000 +0.000000 0
+0.000000 +0.000000 0
+0.000000 +0.000000 0
+0.000000 +0.000000 0
+0.000000 +0.000000 0
+0.000000 +0.000000 0
+0.000000 +0.000000 0
+0.000000 +0.000000 0
+0.000000 +0.000000 0
+0.000000 +0.000000 0
+0.000000 +0.000000 0
+0.000000 +0.000000 0
+0.000000 +0.000000 0
+0.000000 +0.000000 0
+0.000000 +0.000000 0
+0.000000 +0.000000 0
+0.000000 +0.000000 0
+0.000000 +0.000000 0
+0.000000 +0.000000 0
+0.000000 +0.000000 0
+0.000000 +0.000000 0
+0.000000 +0.000000 0
+0.000000 +0.000000 0
+0.000000 +0.000000 0
+0.000000 +0.000000 0
+0.000000 +0.000000 0
+0.000000 +0.000000 0
+0.000000 +0.000000 0
+0.000000 +0.000000 0
+0.000000 +0.000000 0
+0.000000 +0.000000 0
+0.000000 +0.000000 0
+0.000000 +0.000000 0
+0.000000 +0.000000 0
+0.000000 +0.000000 0
+0.000000 +0.000000 0
+0.000000 +0.000000 0
+0.000000 +0.000000 0
+0.000000 +0.000000 0
+0.000000 +0.000000 0
+0.000000 +0.000000 0
+0.000000 +0.000000 0
+0.000000 +0.000000 0
+0.000000 +0.000000 0
+0.000000 +0.000000 0
+0.000000 +0.000000 0
+0.000000 +0.000000 0
+0.000000 +0.000000 0
+0.000000 +0.000000 0
+0.000000 +0.000000 0
+0.000000 +0.000000 0
+0.000000 +0.000000 0
+0.000000 +0.000000 0
+0.000000 +0.000000 0
+0.000000 +0.000000 0
+0.000000 +0.000000 0
+0.000000 +0.000000 0
+0.000000 +0.000000 0
+0.000000 +0.000000 0
+0.000000 +0.000000 0
+0.000000 +0.000000 0
+0.000000 +0.000000 0
+0.000000 +0.000000 0
+0.000000 +0.000000 0
+0.000000 +0.000000 0
+0.000000 +0.000000 0
-0.003554 -0.356763 0
-0.039912 -0.712168 0
-0.100527 -0.936857 0
-0.166507 -0.957574 0
-0.213788 -0.778391 0
-0.220347 -0.474798 0
-0.173282 -0.164008 0
-0.073717 +0.038138 0
-0.079221 -0.389906 0
-0.210849 -0.693808 0
-0.354808 -0.817171 0
-0.463995 -0.728716 0
-0.497225 -0.470577 0
-0.431034 -0.141686 0
-0.266992 +0.138132 0
-0.032581 +0.270514 0
-0.174580 -0.348045 0
-0.392469 -0.552042 0
-0.586553 -0.555105 0
-0.693151 -0.366402 0
-0.669626 -0.057679 0
-0.506120 +0.261848 0
-0.228746 +0.483033 0
+0.106252 +0.533826 0
-0.262604 -0.248512 0
-0.535394 -0.326060 0
-0.735728 -0.214900 0
-0.799543 +0.043306 0
-0.698239 +0.361244 0
-0.445466 +0.634588 0
-0.093511 +0.776202 0
+0.279327 +0.744483 0
-0.319254 -0.119291 0
-0.601957 -0.075418 0
-0.766575 +0.116230 0
-0.765355 +0.395967 0
-0.594115 +0.677723 0
-0.290995 +0.875564 0
+0.073370 +0.930812 0
+0.412431 +0.830342 0
-0.328422 +0.004125 0
-0.573546 +0.131578 0
-0.674067 +0.348738 0
-0.611059 +0.596508 0
-0.405390 +0.805273 0
-0.110317 +0.915640 0
+0.200288 +0.897115 0
+0.447985 +0.757095 0
-0.283184 +0.085384 0
-0.450943 +0.233302 0
-0.481938 +0.414491 0
-0.387377 +0.587263 0
-0.200887 +0.706986 0
+0.026371 +0.741448 0
+0.234506 +0.681569 0
+0.366572 +0.543166 0
-0.179711 +0.092976 0
-0.249279 +0.190093 0
-0.236461 +0.288126 0
-0.161467 +0.367998 0
-0.049397 +0.409930 0
+0.068577 +0.402887 0
+0.159790 +0.348223 0
+0.195358 +0.257530 0
+0.002391 -0.169430 0
+0.019162 -0.308582 0
+0.010306 -0.136706 0
-0.017888 -0.543600 0
+0.025860 -0.669626 0
+0.024732 -0.492960 0
-0.068171 -0.847126 0
+0.013169 -0.932874 0
+0.021987 -0.820935 0
-0.134309 -0.974333 0
-0.016194 -1.005327 0
+0.000050 -0.995863 0
-0.193998 -0.889676 0
-0.051347 -0.871125 0
-0.033960 -0.961886 0
-0.223251 -0.635324 0
-0.076904 -0.590573 0
-0.066323 -0.742947 0
-0.203810 -0.312497 0
-0.078238 -0.274849 0
-0.081329 -0.429258 0
-0.129383 -0.043384 0
-0.046848 -0.044349 0
-0.066805 -0.142313 0
-0.008804 +0.073141 0
-0.018875 +0.009765 0
-0.031144 -0.198191 0
-0.037293 -0.383432 0
-0.011900 -0.189349 0
-0.140683 -0.559683 0
-0.120816 -0.719893 0
-0.074489 -0.565520 0
-0.284214 -0.781754 0
-0.226143 -0.897513 0
-0.172752 -0.833568 0
-0.416614 -0.798433 0
-0.319242 -0.863857 0
-0.276484 -0.907393 0
-0.492101 -0.615651 0
-0.365710 -0.642660 0
-0.350186 -0.772378 0
-0.477090 -0.307475 0
-0.340786 -0.322527 0
-0.363103 -0.487695 0
-0.360097 +0.011482 0
-0.237133 -0.023634 0
-0.298450 -0.162864 0
-0.155972 +0.227013 0
-0.068189 +0.145600 0
-0.159192 +0.082360 0
+0.096670 +0.265313 0
+0.031306 +0.160679 0
-0.078079 -0.186304 0
-0.126125 -0.377514 0
-0.053771 -0.196883 0
-0.282159 -0.473024 0
-0.303557 -0.636471 0
-0.211591 -0.527893 0
-0.496772 -0.579745 0
-0.477680 -0.700656 0
-0.394739 -0.695274 0
-0.654121 -0.481501 0
-0.591277 -0.559581 0
-0.545275 -0.653596 0
-0.699121 -0.220686 0
-0.600371 -0.271644 0
-0.610739 -0.428076 0
-0.604556 +0.108027 0
-0.486637 +0.057234 0
-0.558791 -0.104812 0
-0.378731 +0.390477 0
-0.263127 +0.310951 0
-0.386570 +0.199997 0
-0.064087 +0.531994 0
+0.028017 +0.403447 0
-0.122464 +0.380630 0
+0.272749 +0.489250 0
+0.180114 +0.378150 0
-0.124767 -0.142211 0
-0.221152 -0.303977 0
-0.102314 -0.167589 0
-0.403069 -0.311190 0
-0.471514 -0.446227 0
-0.347475 -0.399093 0
-0.649300 -0.292786 0
-0.674386 -0.389644 0
-0.583506 -0.442608 0
-0.787451 -0.099509 0
-0.763739 -0.161071 0
-0.736421 -0.292790 0
-0.769674 +0.201331 0
-0.702222 +0.157950 0
-0.752718 -0.006298 0
-0.588315 +0.509727 0
-0.490985 +0.458766 0
-0.613677 +0.317494 0
-0.277402 +0.725772 0
-0.169625 +0.642062 0
-0.340294 +0.569966 0
+0.095716 +0.782345 0
+0.193223 +0.650859 0
+0.011617 +0.669542 0
+0.446591 +0.666640 0
+0.364813 +0.588519 0
-0.158317 -0.079029 0
-0.296082 -0.185500 0
-0.143879 -0.111989 0
-0.470858 -0.117954 0
-0.579871 -0.199584 0
-0.445165 -0.215287 0
-0.702979 +0.004780 0
-0.766990 -0.042381 0
-0.689973 -0.140203 0
-0.788009 +0.250133 0
-0.799584 +0.233276 0
-0.804716 +0.085640 0
-0.699518 +0.542305 0
-0.660472 +0.538575 0
-0.750824 +0.388449 0
-0.455220 +0.791717 0
-0.376078 +0.776956 0
-0.533213 +0.671593 0
-0.111202 +0.923019 0
-0.009386 +0.875102 0
-0.198024 +0.846500 0
+0.251544 +0.898882 0
+0.355167 +0.806293 0
+0.178737 +0.861080 0
+0.546096 +0.731175 0
+0.509332 +0.715946 0
-0.169298 -0.014199 0
-0.330400 -0.054520 0
-0.167036 -0.045635 0
-0.466191 +0.053820 0
-0.599982 +0.037731 0
-0.478201 -0.026016 0
-0.644062 +0.232176 0
-0.734864 +0.249847 0
-0.687441 +0.132009 0
-0.662563 +0.473131 0
-0.700616 +0.520028 0
-0.739309 +0.382492 0
-0.523374 +0.709969 0
-0.506276 +0.768837 0
-0.621286 +0.652122 0
-0.264723 +0.875506 0
-0.199322 +0.923042 0
-0.362679 +0.861425 0
+0.048047 +0.922932 0
+0.145824 +0.938530 0
-0.026253 +0.949284 0
+0.336594 +0.840370 0
+0.444685 +0.813755 0
+0.306180 +0.892030 0
+0.526843 +0.653491 0
+0.552428 +0.710030 0
-0.152818 +0.033480 0
-0.312762 +0.052137 0
-0.164647 +0.012918 0
-0.383820 +0.153058 0
-0.523347 +0.198762 0
-0.434623 +0.115326 0
-0.483410 +0.322098 0
-0.588017 +0.405258 0
-0.574948 +0.297457 0
-0.448731 +0.504836 0
-0.503893 +0.619612 0
-0.563386 +0.515124 0
-0.302755 +0.656223 0
-0.300563 +0.784210 0
-0.414199 +0.711463 0
-0.088685 +0.736053 0
-0.032633 +0.853640 0
-0.170545 +0.832727 0
+0.136599 +0.722849 0
+0.230978 +0.809296 0
+0.104201 +0.845588 0
+0.313171 +0.620376 0
+0.421283 +0.664439 0
+0.339193 +0.747458 0
+0.389872 +0.454541 0
+0.471039 +0.565861 0
-0.105752 +0.046628 0
-0.239277 +0.100140 0
-0.133461 +0.045389 0
-0.226157 +0.140659 0
-0.358573 +0.231030 0
-0.314241 +0.162577 0
-0.251927 +0.240012 0
-0.362259 +0.374790 0
-0.373867 +0.302957 0
-0.205342 +0.331693 0
-0.270306 +0.501406 0
-0.326538 +0.442359 0
-0.108219 +0.394671 0
-0.114785 +0.579109 0
-0.197997 +0.548036 0
+0.010926 +0.412741 0
+0.061194 +0.587343 0
-0.026386 +0.592515 0
+0.119472 +0.380956 0
+0.210139 +0.523749 0
+0.141946 +0.563925 0
+0.186094 +0.306448 0
+0.288774 +0.403454 0
+0.260574 +0.469247 0
+0.184830 +0.203044 0
+0.291073 +0.329573 0
-0.101268 +0.060476 0
-0.064444 +0.033341 0
-0.127534 +0.111565 0
-0.120338 +0.085917 0
-0.112838 +0.160166 0
-0.124563 +0.136709 0
-0.069048 +0.196659 0
-0.093788 +0.180576 0
-0.010079 +0.211976 0
-0.040470 +0.207365 0
+0.047668 +0.202038 0
+0.020007 +0.210171 0
+0.087728 +0.168916 0
+0.070868 +0.188037 0
+0.095685 +0.118689 0
+0.096545 +0.145557 0
+0.083178 +0.088340 0
+0.005258 -0.062936 0
+0.011477 -0.114553 0
+0.002228 -0.081453 0
+0.007250 -0.154922 0
+0.000495 -0.262027 0
+0.009356 -0.335501 0
+0.015048 -0.219638 0
+0.025624 -0.275627 0
+0.022456 -0.400505 0
+0.039643 -0.456650 0
-0.009684 -0.451402 0
+0.005432 -0.521921 0
-0.027998 -0.631209 0
-0.004774 -0.695269 0
+0.025915 -0.583414 0
+0.051442 -0.635322 0
+0.024576 -0.749410 0
+0.059531 -0.792999 0
-0.053367 -0.784682 0
-0.020828 -0.839024 0
-0.083980 -0.898208 0
-0.041637 -0.940341 0
+0.018186 -0.882531 0
+0.062946 -0.914582 0
+0.007102 -0.970895 0
+0.061296 -0.989321 0
-0.117411 -0.962380 0
-0.065526 -0.990887 0
-0.150793 -0.972664 0
-0.090372 -0.987372 0
-0.007758 -1.007374 0
+0.054759 -1.011400 0
-0.024988 -0.989992 0
+0.044059 -0.980208 0
-0.181029 -0.929641 0
-0.113767 -0.931656 0
-0.205031 -0.838814 0
-0.133206 -0.830429 0
-0.042818 -0.921906 0
+0.030389 -0.900197 0
-0.059260 -0.810965 0
+0.015304 -0.780334 0
-0.219958 -0.709986 0
-0.146296 -0.694480 0
-0.223451 -0.556278 0
-0.150962 -0.537625 0
-0.072282 -0.668878 0
+0.000570 -0.633163 0
-0.079988 -0.510053 0
-0.012000 -0.473583 0
-0.213838 -0.392874 0
-0.145627 -0.375381 0
-0.190293 -0.235592 0
-0.129377 -0.223517 0
-0.080799 -0.350229 0
-0.020713 -0.317427 0
-0.073606 -0.204994 0
-0.024167 -0.179980 0
-0.152941 -0.099426 0
-0.102065 -0.096585 0
-0.102899 +0.002833 0
-0.064372 -0.006593 0
-0.057894 -0.088343 0
-0.021391 -0.074563 0
-0.033823 -0.011392 0
-0.011950 -0.011302 0
-0.042242 +0.061752 0
-0.017798 +0.038099 0
+0.026107 +0.072123 0
-0.002252 +0.018649 0
-0.004179 -0.093086 0
-0.004026 -0.180878 0
-0.013265 -0.098934 0
-0.020979 -0.195106 0
-0.053244 -0.295859 0
-0.057412 -0.389132 0
-0.022978 -0.286855 0
-0.019198 -0.372712 0
-0.054546 -0.477014 0
-0.044684 -0.558121 0
-0.108534 -0.478466 0
-0.106668 -0.565997 0
-0.174993 -0.631961 0
-0.165074 -0.710970 0
-0.096699 -0.647072 0
-0.078816 -0.720368 0
-0.146317 -0.782495 0
-0.119103 -0.845285 0
-0.247487 -0.744069 0
-0.228099 -0.812283 0
-0.320229 -0.806256 0
-0.290646 -0.862237 0
-0.199531 -0.872153 0
-0.162380 -0.922529 0
-0.251973 -0.909297 0
-0.205028 -0.946407 0
-0.387171 -0.814494 0
-0.347406 -0.857857 0
-0.442434 -0.769576 0
-0.393237 -0.801075 0
-0.299081 -0.892077 0
-0.243228 -0.916260 0
-0.336433 -0.823601 0
-0.273248 -0.836390 0
-0.480723 -0.676976 0
-0.423534 -0.698478 0
-0.497722 -0.546293 0
-0.434574 -0.560633 0
-0.360072 -0.711556 0
-0.291721 -0.715562 0
-0.366807 -0.567429 0
-0.295916 -0.566118 0
-0.490407 -0.390337 0
-0.423802 -0.401082 0
-0.457292 -0.223941 0
-0.390042 -0.235071 0
-0.354470 -0.405405 0
-0.283959 -0.402793 0
-0.322101 -0.241039 0
-0.255011 -0.241337 0
-0.398560 -0.062604 0
-0.333619 -0.078162 0
-0.316100 +0.078905 0
-0.256381 +0.055187 0
-0.270063 -0.089828 0
-0.209367 -0.097054 0
-0.200061 +0.034205 0
-0.148486 +0.016586 0
-0.213418 +0.187870 0
-0.161621 +0.152916 0
-0.095449 +0.254755 0
-0.053901 +0.206438 0
-0.115075 +0.119771 0
-0.074941 +0.089175 0
-0.019201 +0.159324 0
+0.007723 +0.114299 0
+0.031733 +0.274034 0
+0.061225 +0.211399 0
+0.161304 +0.244690 0
+0.082601 +0.149749 0
-0.024258 -0.099554 0
-0.042120 -0.198769 0
-0.036314 -0.095388 0
-0.065806 -0.192704 0
-0.124443 -0.271080 0
-0.150362 -0.364792 0
-0.087921 -0.290159 0
-0.102248 -0.385986 0
-0.167598 -0.457293 0
-0.175848 -0.546896 0
-0.227479 -0.415802 0
-0.247219 -0.503137 0
-0.337508 -0.518726 0
-0.348872 -0.597338 0
-0.257195 -0.588014 0
-0.257265 -0.668841 0
-0.349706 -0.672443 0
-0.340069 -0.742559 0
-0.445911 -0.572490 0
-0.447260 -0.640731 0
-0.543984 -0.573870 0
-0.534338 -0.630994 0
-0.437694 -0.704703 0
-0.417497 -0.763055 0
-0.513812 -0.683450 0
-0.482931 -0.730026 0
-0.623551 -0.524055 0
-0.602642 -0.570342 0
-0.677541 -0.428534 0
-0.645817 -0.465298 0
-0.571324 -0.611959 0
-0.530362 -0.647838 0
-0.604581 -0.497795 0
-0.554825 -0.525085 0
-0.700483 -0.296585 0
-0.659066 -0.326091 0
-0.688883 -0.140447 0
-0.639488 -0.165728 0
-0.609429 -0.352101 0
-0.552762 -0.373774 0
-0.583505 -0.188577 0
-0.522285 -0.208219 0
-0.641470 +0.025767 0
-0.586293 +0.001170 0
-0.559299 +0.187305 0
-0.500883 +0.159663 0
-0.526432 -0.022250 0
-0.463344 -0.043740 0
-0.439867 +0.131874 0
-0.377761 +0.104712 0
-0.445705 +0.330068 0
-0.386785 +0.295806 0
-0.306114 +0.441829 0
-0.249457 +0.397865 0
-0.327436 +0.260131 0
-0.269154 +0.223885 0
-0.194523 +0.351404 0
-0.142735 +0.303394 0
-0.147719 +0.513289 0
-0.095965 +0.457331 0
+0.020955 +0.538863 0
+0.065450 +0.469644 0
-0.047963 +0.398084 0
-0.005004 +0.336632 0
+0.104383 +0.396719 0
+0.136656 +0.321331 0
+0.190574 +0.517131 0
+0.225887 +0.434571 0
+0.351614 +0.450956 0
+0.254135 +0.348311 0
-0.048557 -0.086973 0
-0.090297 -0.177898 0
-0.060117 -0.075010 0
-0.113850 -0.155647 0
-0.192678 -0.200426 0
-0.242699 -0.277460 0
-0.160196 -0.240398 0
-0.198299 -0.327670 0
-0.283971 -0.357216 0
-0.315757 -0.438165 0
-0.333178 -0.285669 0
-0.376736 -0.356551 0
-0.470911 -0.324729 0
-0.505641 -0.387470 0
-0.410393 -0.428943 0
-0.433572 -0.501414 0
-0.529606 -0.450785 0
-0.542434 -0.513365 0
-0.595256 -0.315321 0
-0.619323 -0.368692 0
-0.696458 -0.259061 0
-0.708647 -0.302734 0
-0.632111 -0.422054 0
-0.633485 -0.474239 0
-0.709434 -0.346222 0
-0.698943 -0.388502 0
-0.766306 -0.161327 0
-0.766066 -0.195937 0
-0.798675 -0.030805 0
-0.786124 -0.057920 0
-0.754714 -0.230608 0
-0.732644 -0.264458 0
-0.763167 -0.085746 0
-0.730461 -0.113517 0
-0.789910 +0.121240 0
-0.765802 +0.099237 0
-0.739038 +0.281904 0
-0.704705 +0.262020 0
-0.732392 +0.075531 0
-0.690583 +0.050805 0
-0.662535 +0.239193 0
-0.613642 +0.214062 0
-0.647811 +0.437724 0
-0.605081 +0.416626 0
-0.520583 +0.575809 0
-0.471676 +0.550135 0
-0.556280 +0.391213 0
-0.502690 +0.362129 0
-0.418690 +0.518773 0
-0.363017 +0.482419 0
-0.364043 +0.684919 0
-0.311452 +0.651596 0
-0.186805 +0.756399 0
-0.133157 +0.712947 0
-0.256906 +0.611344 0
-0.201843 +0.564954 0
-0.079706 +0.661579 0
-0.027873 +0.603215 0
+0.001114 +0.784890 0
+0.053203 +0.729677 0
+0.188909 +0.768753 0
+0.236985 +0.701176 0
+0.103023 +0.665913 0
+0.149234 +0.594675 0
+0.280907 +0.624838 0
+0.319479 +0.540986 0
+0.365650 +0.710171 0
+0.407578 +0.630758 0
+0.520996 +0.614930 0
+0.443753 +0.542834 0
-0.070189 -0.060371 0
-0.134818 -0.127603 0
-0.078070 -0.044084 0
-0.151746 -0.095734 0
-0.239209 -0.104275 0
-0.309077 -0.152526 0
-0.219643 -0.153978 0
-0.280494 -0.217705 0
-0.371730 -0.206069 0
-0.426007 -0.263855 0
-0.396951 -0.123887 0
-0.460210 -0.166389 0
-0.539621 -0.101696 0
-0.593856 -0.136675 0
-0.514990 -0.213105 0
-0.560279 -0.263094 0