# vtk DataFile Version 2.0
this shit
ASCII
DATASET POLYDATA
POINTS 2113 double
0.000000 0.000000 0.000000
1.000000 0.000000 0.000000
1.000000 1.000000 0.000000
0.000000 1.000000 0.000000
0.031250 0.000000 0.000000
0.062500 0.000000 0.000000
0.093750 0.000000 0.000000
0.125000 0.000000 0.000000
0.156250 0.000000 0.000000
0.187500 0.000000 0.000000
0.218750 0.000000 0.000000
0.250000 0.000000 0.000000
0.281250 0.000000 0.000000
0.312500 0.000000 0.000000
0.343750 0.000000 0.000000
0.375000 0.000000 0.000000
0.406250 0.000000 0.000000
0.437500 0.000000 0.000000
0.468750 0.000000 0.000000
0.500000 0.000000 0.000000
0.531250 0.000000 0.000000
0.562500 0.000000 0.000000
0.593750 0.000000 0.000000
0.625000 0.000000 0.000000
0.656250 0.000000 0.000000
0.687500 0.000000 0.000000
0.718750 0.000000 0.000000
0.750000 0.000000 0.000000
0.781250 0.000000 0.000000
0.812500 0.000000 0.000000
0.843750 0.000000 0.000000
0.875000 0.000000 0.000000
0.906250 0.000000 0.000000
0.937500 0.000000 0.000000
0.968750 0.000000 0.000000
1.000000 0.031250 0.000000
1.000000 0.062500 0.000000
1.000000 0.093750 0.000000
1.000000 0.125000 0.000000
1.000000 0.156250 0.000000
1.000000 0.187500 0.000000
1.000000 0.218750 0.000000
1.000000 0.250000 0.000000
1.000000 0.281250 0.000000
1.000000 0.312500 0.000000
1.000000 0.343750 0.000000
1.000000 0.375000 0.000000
1.000000 0.406250 0.000000
1.000000 0.437500 0.000000
1.000000 0.468750 0.000000
1.000000 0.500000 0.000000
1.000000 0.531250 0.000000
1.000000 0.562500 0.000000
1.000000 0.593750 0.000000
1.000000 0.625000 0.000000
1.000000 0.656250 0.000000
1.000000 0.687500 0.000000
1.000000 0.718750 0.000000
1.000000 0.750000 0.000000
1.000000 0.781250 0.000000
1.000000 0.812500 0.000000
1.000000 0.843750 0.000000
1.000000 0.875000 0.000000
1.000000 0.906250 0.000000
1.000000 0.937500 0.000000
1.000000 0.968750 0.000000
0.968750 1.000000 0.000000
0.937500 1.000000 0.000000
0.906250 1.000000 0.000000
0.875000 1.000000 0.000000
0.843750 1.000000 0.000000
0.812500 1.000000 0.000000
0.781250 1.000000 0.000000
0.750000 1.000000 0.000000
0.718750 1.000000 0.000000
0.687500 1.000000 0.000000
0.656250 1.000000 0.000000
0.625000 1.000000 0.000000
0.593750 1.000000 0.000000
0.562500 1.000000 0.000000
0.531250 1.000000 0.000000
0.500000 1.000000 0.000000
0.468750 1.000000 0.000000
0.437500 1.000000 0.000000
0.406250 1.000000 0.000000
0.375000 1.000000 0.000000
0.343750 1.000000 0.000000
0.312500 1.000000 0.000000
0.281250 1.000000 0.000000
0.250000 1.000000 0.000000
0.218750 1.000000 0.000000
0.187500 1.000000 0.000000
0.156250 1.000000 0.000000
0.125000 1.000000 0.000000
0.093750 1.000000 0.000000
0.062500 1.000000 0.000000
0.031250 1.000000 0.000000
0.000000 0.968750 0.000000
0.000000 0.937500 0.000000
0.000000 0.906250 0.000000
0.000000 0.875000 0.000000
0.000000 0.843750 0.000000
0.000000 0.812500 0.000000
0.000000 0.781250 0.000000
0.000000 0.750000 0.000000
0.000000 0.718750 0.000000
0.000000 0.687500 0.000000
0.000000 0.656250 0.000000
0.000000 0.625000 0.000000
0.000000 0.593750 0.000000
0.000000 0.562500 0.000000
0.000000 0.531250 0.000000
0.000000 0.500000 0.000000
0.000000 0.468750 0.000000
0.000000 0.437500 0.000000
0.000000 0.406250 0.000000
0.000000 0.375000 0.000000
0.000000 0.343750 0.000000
0.000000 0.312500 0.000000
0.000000 0.281250 0.000000
0.000000 0.250000 0.000000
0.000000 0.218750 0.000000
0.000000 0.187500 0.000000
0.000000 0.156250 0.000000
0.000000 0.125000 0.000000
0.000000 0.093750 0.000000
0.000000 0.062500 0.000000
0.000000 0.031250 0.000000
0.499291 0.502292 0.000000
0.335664 0.336784 0.000000
0.664092 0.336517 0.000000
0.663596 0.665395 0.000000
0.335120 0.665550 0.000000
0.441893 0.443996 0.000000
0.499878 0.316163 0.000000
0.557330 0.443830 0.000000
0.396827 0.168824 0.000000
0.603237 0.168777 0.000000
0.192296 0.192607 0.000000
0.807818 0.192420 0.000000
0.557078 0.559574 0.000000
0.499210 0.686355 0.000000
0.441684 0.559761 0.000000
0.602794 0.832430 0.000000
0.396186 0.832430 0.000000
0.807506 0.808276 0.000000
0.191852 0.808354 0.000000
0.168274 0.603875 0.000000
0.168458 0.397458 0.000000
0.314981 0.501398 0.000000
0.831292 0.397250 0.000000
0.831112 0.603727 0.000000
0.684162 0.501086 0.000000
0.479034 0.481683 0.000000
0.499594 0.435947 0.000000
0.519828 0.481576 0.000000
0.464579 0.382430 0.000000
0.534908 0.382374 0.000000
0.393501 0.395114 0.000000
0.418009 0.321375 0.000000
0.581733 0.321254 0.000000
0.605989 0.394895 0.000000
0.361141 0.253098 0.000000
0.453718 0.245019 0.000000
0.500068 0.166024 0.000000
0.546299 0.244985 0.000000
0.443023 0.084398 0.000000
0.557028 0.084390 0.000000
0.638830 0.252944 0.000000
0.268783 0.269426 0.000000
0.293974 0.177439 0.000000
0.215776 0.093617 0.000000
0.329077 0.087341 0.000000
0.104561 0.104670 0.000000
0.706128 0.177293 0.000000
0.731225 0.269181 0.000000
0.670958 0.087295 0.000000
0.784319 0.093524 0.000000
0.895511 0.104579 0.000000
0.519770 0.522541 0.000000
0.499406 0.567811 0.000000
0.478993 0.522633 0.000000
0.534449 0.620703 0.000000
0.464165 0.620755 0.000000
0.605546 0.607751 0.000000
0.581119 0.681074 0.000000
0.417399 0.681124 0.000000
0.393107 0.607938 0.000000
0.638295 0.748705 0.000000
0.545577 0.756880 0.000000
0.499438 0.835254 0.000000
0.452925 0.756898 0.000000
0.556805 0.916255 0.000000
0.442664 0.916247 0.000000
0.360443 0.748744 0.000000
0.730784 0.732094 0.000000
0.705760 0.823709 0.000000
0.784145 0.906918 0.000000
0.670772 0.913270 0.000000
0.895378 0.895660 0.000000
0.293407 0.823730 0.000000
0.268216 0.732196 0.000000
0.328754 0.913265 0.000000
0.215481 0.906919 0.000000
0.104359 0.895702 0.000000
0.093311 0.784523 0.000000
0.087083 0.671238 0.000000
0.176769 0.706688 0.000000
0.084186 0.557360 0.000000
0.252056 0.639805 0.000000
0.084226 0.443314 0.000000
0.165563 0.500701 0.000000
0.244273 0.454774 0.000000
0.244132 0.547326 0.000000
0.252433 0.362093 0.000000
0.320269 0.419487 0.000000
0.319967 0.583183 0.000000
0.087219 0.329374 0.000000
0.093532 0.216021 0.000000
0.177129 0.294503 0.000000
0.380697 0.536846 0.000000
0.380849 0.466513 0.000000
0.433826 0.501989 0.000000
0.906518 0.215894 0.000000
0.912720 0.329270 0.000000
0.822850 0.294288 0.000000
0.915591 0.443213 0.000000
0.747332 0.361808 0.000000
0.915547 0.557279 0.000000
0.833983 0.500496 0.000000
0.755067 0.547054 0.000000
0.755196 0.454486 0.000000
0.746976 0.639641 0.000000
0.678905 0.582920 0.000000
0.679210 0.419179 0.000000
0.912586 0.671193 0.000000
0.906338 0.784471 0.000000
0.822538 0.706584 0.000000
0.618343 0.466240 0.000000
0.618172 0.536576 0.000000
0.565112 0.501757 0.000000
0.492121 0.494974 0.000000
0.499416 0.478763 0.000000
0.506567 0.494925 0.000000
0.487150 0.459771 0.000000
0.511862 0.459710 0.000000
0.462062 0.464440 0.000000
0.470978 0.438014 0.000000
0.528222 0.437925 0.000000
0.536992 0.464293 0.000000
0.451527 0.413763 0.000000
0.483683 0.410167 0.000000
0.499754 0.380799 0.000000
0.515678 0.410139 0.000000
0.480763 0.349905 0.000000
0.518852 0.349881 0.000000
0.547821 0.413658 0.000000
0.418945 0.420804 0.000000
0.429221 0.387240 0.000000
0.404303 0.358559 0.000000
0.442621 0.352813 0.000000
0.365712 0.367080 0.000000
0.376913 0.327822 0.000000
0.458974 0.317479 0.000000
0.570259 0.387100 0.000000
0.580410 0.420614 0.000000
0.556986 0.352726 0.000000
0.595307 0.358390 0.000000
0.540773 0.317430 0.000000
0.622823 0.327620 0.000000
0.633913 0.366835 0.000000
0.347120 0.295042 0.000000
0.390846 0.288144 0.000000
0.407424 0.248038 0.000000
0.434515 0.283527 0.000000
0.377694 0.211001 0.000000
0.426618 0.207562 0.000000
0.478146 0.281215 0.000000
0.448439 0.166726 0.000000
0.475569 0.205856 0.000000
0.524525 0.205842 0.000000
0.500009 0.244009 0.000000
0.551678 0.166704 0.000000
0.573459 0.207520 0.000000
0.521759 0.281194 0.000000
0.418591 0.126611 0.000000
0.472905 0.125546 0.000000
0.500039 0.084036 0.000000
0.527207 0.125539 0.000000
0.470144 0.042194 0.000000
0.529878 0.042192 0.000000
0.581472 0.126591 0.000000
0.565379 0.283455 0.000000
0.592576 0.247956 0.000000
0.609033 0.287996 0.000000
0.622339 0.210912 0.000000
0.652736 0.294826 0.000000
0.303366 0.304239 0.000000
0.314905 0.260208 0.000000
0.280203 0.223268 0.000000
0.328871 0.216220 0.000000
0.231810 0.232268 0.000000
0.242897 0.184118 0.000000
0.345317 0.172379 0.000000
0.202821 0.142568 0.000000
0.256333 0.136633 0.000000
0.272308 0.090020 0.000000
0.310226 0.132090 0.000000
0.231441 0.046034 0.000000
0.290985 0.044439 0.000000
0.364333 0.128774 0.000000
0.150005 0.150201 0.000000
0.159712 0.098357 0.000000
0.113149 0.051046 0.000000
0.172088 0.048166 0.000000
0.055236 0.055275 0.000000
0.386011 0.085487 0.000000
0.350651 0.043296 0.000000
0.410395 0.042560 0.000000
0.685073 0.259994 0.000000
0.696518 0.303977 0.000000
0.671172 0.216068 0.000000
0.719872 0.223070 0.000000
0.654746 0.172281 0.000000
0.757219 0.183942 0.000000
0.768275 0.232047 0.000000
0.635713 0.128722 0.000000
0.689870 0.131989 0.000000
0.727780 0.089937 0.000000
0.743789 0.136503 0.000000
0.709030 0.044414 0.000000
0.768606 0.045990 0.000000
0.797292 0.142432 0.000000
0.614012 0.085468 0.000000
0.589616 0.042552 0.000000
0.649349 0.043286 0.000000
0.840370 0.098263 0.000000
0.850095 0.150065 0.000000
0.827956 0.048120 0.000000
0.886885 0.051004 0.000000
0.944791 0.055241 0.000000
0.506552 0.509492 0.000000
0.499380 0.525506 0.000000
0.492112 0.509533 0.000000
0.511767 0.544250 0.000000
0.487053 0.544292 0.000000
0.536853 0.539484 0.000000
0.528005 0.565706 0.000000
0.470784 0.565801 0.000000
0.461943 0.539628 0.000000
0.547468 0.589617 0.000000
0.515337 0.593297 0.000000
0.499300 0.622371 0.000000
0.483373 0.593333 0.000000
0.518292 0.652934 0.000000
0.480219 0.652948 0.000000
0.451235 0.589732 0.000000
0.580051 0.582418 0.000000
0.569799 0.615791 0.000000
0.594774 0.644116 0.000000
0.556432 0.649970 0.000000
0.633424 0.635436 0.000000
0.622265 0.674520 0.000000
0.540126 0.685026 0.000000
0.428824 0.615911 0.000000
0.418644 0.582606 0.000000
0.442109 0.650026 0.000000
[...]
POINT_DATA 2113
SCALARS solution_0 double
LOOKUP_TABLE defaul
0.000000
0.000000
0.000000
0.000000
0.000000
0.000000
0.000000
0.000000
0.000000
0.000000
0.000000
0.000000
0.000000
0.000000
0.000000
0.000000
0.000000
0.000000
0.000000
0.000000
0.000000
0.000000
0.000000
0.000000
0.000000
0.000000
0.000000
0.000000
0.000000
0.000000
0.000000
0.000000
0.000000
0.000000
0.000000
0.000000
0.000000
0.000000
0.000000
0.000000
0.000000
0.000000
0.000000
0.000000
0.000000
0.000000
0.000000
0.000000
0.000000
0.000000
0.000000
0.000000
0.000000
0.000000
0.000000
0.000000
0.000000
0.000000
0.000000
0.000000
0.000000
0.000000
0.000000
0.000000
0.000000
0.000000
0.000000
0.000000
0.000000
0.000000
0.000000
0.000000
0.000000
0.000000
0.000000
0.000000
0.000000
0.000000
0.000000
0.000000
0.000000
0.000000
0.000000
0.000000
0.000000
0.000000
0.000000
0.000000
0.000000
0.000000
0.000000
0.000000
0.000000
0.000000
0.000000
0.000000
0.000000
0.000000
0.000000
0.000000
0.000000
0.000000
0.000000
0.000000
0.000000
0.000000
0.000000
0.000000
0.000000
0.000000
0.000000
0.000000
0.000000
0.000000
0.000000
0.000000
0.000000
0.000000
0.000000
0.000000
0.000000
0.000000
0.000000
0.000000
0.000000
0.000000
0.000000
0.000000
1.954818
1.508151
1.509597
1.504508
1.502399
1.895752
1.650877
1.896004
0.973865
0.961545
0.711754
0.713670
1.892989
1.643195
1.892567
0.969170
0.953924
0.710626
0.708415
0.969750
0.958315
1.646489
0.973197
0.958505
1.647824
1.947697
1.917150
1.947778
1.818964
1.818634
1.758068
1.618995
1.617046
1.758729
1.303245
1.368751
0.992834
1.364990
0.521141
0.513254
1.297027
1.146667
0.889218
0.428774
0.498628
0.282774
0.876516
1.148764
0.480170
0.414588
0.283751
1.946548
1.913483
1.946441
1.813395
1.812502
1.754226
1.612929
1.609013
1.753033
1.298561
1.361706
0.986265
1.356567
0.517998
0.508773
1.288587
1.144252
0.886638
0.428000
0.496553
0.282471
0.869486
1.141715
0.475475
0.410606
0.281287
0.426742
0.496186
0.885265
0.518906
1.297810
0.511059
0.989284
1.361160
1.363973
1.293929
1.614127
1.613393
0.478275
0.413135
0.873809
1.814629
1.815953
1.914993
0.429536
0.498536
0.890118
0.520448
1.303383
0.511778
0.991027
1.361738
1.366958
1.292551
1.612632
1.617912
0.478315
0.412778
0.872974
1.817127
1.815112
1.915352
1.954019
1.950523
1.954050
1.938356
1.938402
1.930083
1.912098
1.912150
1.930242
1.866574
1.878933
1.825726
1.878865
1.748424
1.747996
1.866543
1.839772
1.797233
1.700655
1.733217
1.647884
1.574928
1.643549
1.797055
1.840171
1.732330
1.700170
1.642138
1.573847
1.648895
1.419994
1.475303
1.345738
1.509288
1.155025
1.184073
1.524725
0.990190
1.196215
1.193422
1.374733
0.983204
1.176483
1.523450
0.760969
0.766879
0.520365
0.762755
0.263271
0.260446
0.749383
1.506032
1.339552
1.471606
1.144894
1.417975
1.339932
1.238076
1.033768
1.106056
0.934411
0.814092
0.941246
0.588339
0.660327
0.470961
0.710597
0.231126
0.248227
0.743127
0.489886
0.368021
0.166776
0.205066
0.108587
0.514533
0.258276
0.262818
1.234662
1.341767
1.096639
1.028601
0.926738
0.807231
0.936533
0.726419
0.692611
0.452558
0.645472
0.234052
0.218056
0.580633
0.499987
0.254643
0.245932
0.361341
0.491380
0.196057
0.163699
0.109000
1.953595
1.949091
1.953566
1.935953
1.935868
1.928121
1.908732
1.908475
1.927904
1.862335
1.874204
1.819739
1.873954
1.741682
1.740865
1.861681
1.836331
1.792385
1.695568
1.727160
1.643978
1.570009
1.636541
1.791024
1.835573
1.725106
1.693139
1.634097
1.566122
1.642294
1.415657
1.469719
1.339789
1.502564
1.150186
1.178066
1.517092
0.984496
1.189223
1.185680
1.366855
0.975952
1.168277
1.515180
0.756839
0.761915
0.516510
0.757004
0.261443
0.258155
0.743060
1.497493
1.330944
1.463177
1.136578
1.409938
1.336825
1.234585
1.031193
1.102417
0.932688
0.812352
0.937632
0.587324
0.658709
0.469596
0.708166
0.230652
0.247292
0.739792
0.489241
0.367551
0.166629
0.204828
0.108485
0.511919
0.257015
0.261339
1.226765
1.334417
1.088658
1.021314
0.919220
0.800961
0.930188
0.719973
0.686426
0.448131
0.639803
0.231543
0.215723
0.575715
0.495235
0.252099
0.243349
0.357992
0.487461
0.193993
0.162029
0.107965
0.165826
0.203995
0.366127
0.230048
0.585545
0.246932
0.468793
0.707402
0.657313
0.739714
0.937120
0.810362
0.256916
0.261591
0.512105
0.262102
0.757689
1.029205
1.101278
1.232800
1.150169
1.414193
0.259236
0.518234
0.759880
0.763862
0.746515
0.979877
0.986362
1.172970
1.189552
1.370374
1.191979
1.519325
1.520001
1.179544
1.141567
1.336149
1.468627
1.502508
1.415470
1.571636
1.638479
1.340511
1.503983
1.469586
1.638457
1.569054
0.253404
0.244829
0.497860
0.233102
0.723706
0.217273
0.450931
0.643320
0.690202
0.578713
0.804838
0.923718
0.195372
0.163093
0.360044
1.093597
1.025945
1.231970
1.695136
1.728067
1.792397
1.743901
1.862684
1.744299
1.822169
1.876427
1.875658
1.865047
1.910859
1.909289
1.729486
1.698216
1.795334
1.936599
1.937329
1.949722
0.167207
0.205479
0.368942
0.231409
0.589632
0.248219
0.471432
0.711019
0.661291
0.742802
0.941359
0.815579
0.258031
0.262506
0.514068
0.262804
0.760161
1.035217
1.106653
1.239231
1.154681
1.420672
0.259728
0.519348
0.761068
0.765687
0.747119
0.980797
0.988961
1.173309
1.190865
1.372136
1.194330
1.520226
1.522260
1.182945
1.141079
1.335655
1.467105
1.502126
1.413031
1.568958
1.638349
1.344870
1.507757
1.474851
1.641374
1.575053
0.253744
0.244984
0.498218
0.233098
0.723807
0.217148
0.450725
0.642751
0.689903
0.578030
0.803766
0.923313
0.195179
0.162904
0.359655
1.092474
1.024411
1.229949
1.700311
1.731643
1.796549
1.745812
1.865714
1.744578
1.822981
1.876158
1.877049
1.863153
1.909637
1.911215
1.728222
1.695541
1.792931
1.937530
1.936814
1.949830
1.954729
1.954407
1.954735
1.953011
1.953028
1.951916
1.949843
1.949882
1.951971
1.944195
1.945862
1.939333
1.945884
1.929560
1.929579
1.944262
1.940648
1.935367
1.922686
1.927321
1.915330
1.905497
1.915903
1.935464
1.940769
1.927382
1.922802
1.915922
1.905622
1.915534
1.883180
1.892047
1.874396
1.897722
1.845351
1.851938
1.900472
1.824108
1.855123
1.855059
1.880391
1.823910
1.851774
1.900462
1.786831
1.790335
1.750099
1.790181
1.703239
1.702939
1.786411
1.897703
1.874309
1.892070
1.845169
1.883308
1.870746
1.855151
1.820917
1.835121
1.802340
1.780018
1.810089
1.732127
1.752496
1.719254
1.768167
1.663105
1.679763
1.779513
1.706641
1.676995
1.614484
1.641476
1.581697
1.544576
1.599574
1.742848
1.691826
1.699579
1.633532
1.649257
1.855289
1.871064
1.835032
1.821060
1.809764
1.780178
1.802861
1.778958
1.767648
1.718450
1.752207
1.678432
1.661904
1.732284
1.742108
1.698753
1.690634
1.648493
1.631714
1.677123
1.707472
1.640740
1.614559
1.597868
1.544573
1.582920
1.467410
1.501015
1.450531
1.528689
1.365404
1.392668
1.550814
1.327112
1.414429
1.431087
1.494761
1.359503
1.442992
1.567842
1.233209
1.253564
1.171833
1.268986
1.068557
1.081886
1.279848
1.580126
1.519184
1.587940
1.450441
1.591517
0.983875
1.091058
1.096411
1.192101
0.993109
1.098198
1.286473
1.096579
1.196618
1.287916
1.289111
1.282978
1.371795
1.373755
0.989512
1.091659
1.083483
1.186717
0.973918
1.071993
1.274333
1.453678
1.452873
1.526103
1.448097
1.591012
0.871179
0.878146
0.765268
0.881914
0.643959
0.646068
0.882727
0.521594
0.645991
0.643889
0.765998
0.517570
0.639854
0.880757
0.393760
0.393152
0.262234
0.391344
0.131390
0.130553
0.388395
0.876110
0.757221
0.868811
0.633902
0.858816
1.586493
1.516783
1.577927
1.439341
1.565192
1.354289
1.426505
1.409417
1.491051
1.320569
1.387808
1.548087
1.261906
1.162618
1.245517
1.057026
1.224908
1.526321
1.447381
1.499526
1.361313
1.467272
1.427440
1.383257
1.292561
1.332176
1.246114
1.195864
1.273715
1.093942
1.138328
1.073056
1.176031
0.965658
0.999663
1.207507
1.042434
0.987700
0.878174
0.925326
0.823746
0.766568
0.854795
1.133232
1.027850
1.050676
0.917868
0.959774
0.654248
0.701294
0.627324
0.741600
0.513313
0.544244
0.775724
0.451901
0.570075
0.591364
0.687904
0.486410
0.608583
0.804210
0.334590
0.350505
0.240646
0.363412
0.119172
0.123334
0.373650
0.827571
0.728873
0.846255
0.622114
0.860667
0.599914
0.542731
0.433677
0.476690
0.383475
0.328946
0.401014
0.230631
0.264066
0.187736
0.291955
0.089931
0.099566
0.315246
0.190148
0.141082
0.063098
0.078068
0.042397
0.219376
0.107472
0.113940
0.753704
0.632298
0.639459
0.507899
0.518853
0.381482
0.387134
0.261128
0.390915
0.130499
0.131462
0.393062
0.254041
0.126547
0.128894
0.263498
0.131889
0.131849
1.382926
1.429098
1.329515
1.291937
1.268536
1.194906
1.248098
1.199746
1.169620
1.065332
1.134069
0.988550
0.956602
1.092573
1.123016
1.038347
1.015642
0.945899
0.903741
0.985869
1.044573
0.919253
0.875877
0.844545
0.763862
0.825787
0.846002
0.830172
0.710987
0.811090
0.604014
0.589614
0.788418
0.467457
0.572621
0.552669
0.670931
0.435106
0.529250
0.761710
0.356343
0.345975
0.226649
0.333885
0.114793
0.110898
0.319735
0.730414
0.615623
0.693850
0.501708
0.651226
0.739155
0.626008
0.616079
0.507397
0.490945
0.384323
0.379108
0.250645
0.372761
0.125920
0.123691
0.365213
0.257910
0.129361
0.127809
0.240432
0.121123
0.118177
0.539573
0.601637
0.469198
0.430645
0.390310
0.326388
0.384718
0.303032
0.283088
0.181623
0.258886
0.094843
0.087139
0.228903
0.207996
0.106397
0.101129
0.140549
0.190836
0.077287
0.063748
0.042565
1.954580
1.953889
1.954576
1.952097
1.952073
1.951152
1.948505
1.948447
1.951083
1.942416
1.943943
1.936820
1.943908
1.926525
1.926470
1.942317
1.939095
1.933144
1.920020
1.924431
1.912964
1.902393
1.912346
1.932989
1.938941
1.924278
1.919781
1.912210
1.902037
1.912652
1.879664
1.888217
1.869868
1.893656
1.840432
1.846752
1.896255
1.818290
1.849753
1.849578
1.875533
1.817815
1.846240
1.896162
1.780650
1.783917
1.743125
1.783597
1.695994
1.695463
1.779731
1.893389
1.869387
1.887797
1.839639
1.879136
1.867618
1.851283
1.816752
1.830541
1.798663
1.775647
1.804845
1.727639
1.747481
1.713653
1.762692
1.657495
1.673644
1.773647
1.702729
1.672487
1.610045
1.636433
1.577887
1.540298
1.594069
1.736412
1.685261
1.692639
1.626969
1.641882
1.850529
1.867041
1.829568
1.815717
1.803645
1.774284
1.797692
1.772249
1.760978
1.711286
1.745640
1.670755
1.654320
1.725882
1.734890
1.691127
1.682941
1.640589
1.623635
1.670279
1.701287
1.633315
1.607348
1.589957
1.537085
1.575974
1.463382
1.496344
1.445555
1.523378
1.360855
1.387494
1.544927
1.321787
1.408631
1.424698
1.488590
1.352979
1.436067
1.561413
1.228416
1.248143
1.166394
1.262967
1.063746
1.076513
1.273278
1.573200
1.511977
1.580581
1.443045
1.583789
0.978661
1.085156
1.090024
1.185575
0.986958
1.091370
1.279410
1.089363
1.189218
1.280060
1.281619
1.274832
1.363603
1.366263
0.982572
1.084116
1.075684
1.178702
0.966433
1.064023
1.265977
1.445876
1.444734
1.518119
1.439705
1.582990
0.866699
0.873211
0.760724
0.876527
0.640273
0.642000
0.876910
0.518095
0.641529
0.639050
0.760620
0.513373
0.634673
0.874540
0.391214
0.390303
0.260165
0.388194
0.130386
0.129423
0.384988
0.869541
0.751144
0.861956
0.628457
0.851775
1.578255
1.508330
1.569582
1.430785
1.556836
1.345726
1.417888
1.400828
1.482529
1.312001
1.379322
1.539805
1.253425
1.154306
1.237004
1.048991
1.216463
1.518182
1.439111
1.491592
1.353014
1.459606
1.424041
1.379557
1.289220
1.328245
1.243343
1.192928
1.269637
1.091420
1.135293
1.069969
1.172441
0.963059
0.996556
1.203329
1.040372
0.985574
0.876422
0.923175
0.822331
0.765156
0.852657
1.128997
1.024191
1.046441
0.914780
0.955611
0.653155
0.699928
0.626040
0.739900
0.512413
0.543065
0.773633
0.450857
0.568565
0.589479
0.685894
0.484688
0.606292
0.801674
0.333956
0.349613
0.239948
0.362224
0.118883
0.122912
0.372170
0.824554
0.725981
0.842737
0.619426
0.856658
0.599045
0.541915
0.433106
0.475973
0.383020
0.328565
0.400415
0.230402
0.263779
0.187547
0.291595
0.089862
0.099476
0.314778
0.189962
0.140965
0.063056
0.078017
0.042353
0.219044
0.107348
0.113752
0.749951
0.629250
0.636104
0.505517
0.515991
0.379741
0.385212
0.259761
0.388819
0.129827
0.130732
0.390766
0.252913
0.126008
0.128282
0.261857
0.131089
0.130957
1.375193
1.421756
1.321484
1.284263
1.260320
1.187404
1.240846
1.191469
1.161618
1.057662
1.126421
0.980989
0.949374
1.085346
1.114813
1.030358
1.007823
0.938273
0.896431
0.979023
1.037823
0.912425
0.869511
0.837861
0.758068
0.819942
0.838891
0.823118
0.704638
0.804182
0.598385
0.584094
0.781732
0.462873
0.567267
0.547536
0.664974
0.430880
0.524388
0.755312
0.352694
0.342425
0.224217
0.330469
0.113506
0.109655
0.316486
0.724369
0.610298
0.688221
0.497171
0.646077
0.732716
0.620391
0.610417
0.502734
0.486196
0.380724
0.375417
0.248068
0.369037
0.124594
0.122355
0.361507
0.255461
0.128127
0.126517
0.237874
0.119790
0.116860
0.535124
0.597025
0.465043
0.426934
0.386617
0.323448
0.381510
0.299985
0.280283
0.179736
0.256372
0.093799
0.086189
0.226745
0.205785
0.105208
0.100005
0.139156
0.189110
0.076457
0.063077
0.042134
0.062734
0.077627
0.140315
0.089403
0.229399
0.099009
0.186700
0.290445
0.262645
0.313704
0.399034
0.327244
0.106937
0.113401
0.218328
0.118591
0.333033
0.431509
0.474353
0.540102
0.510870
0.651168
0.122688
0.239486
0.361672
0.348880
0.371769
0.484110
0.449817
0.605755
0.588663
0.684802
0.567475
0.800631
0.772231
0.541721
0.619168
0.725558
0.842491
0.823893
0.856867
0.955610
0.913821
0.624410
0.738211
0.698038
0.850938
0.763011
0.125835
0.128178
0.252668
0.129815
0.379529
0.130816
0.259851
0.389092
0.385232
0.391297
0.516528
0.505409
0.131258
0.131232
0.262300
0.130785
0.392050
0.629321
0.636571
0.750306
0.641193
0.867451
0.874165
0.921154
0.983278
0.961369
1.089154
0.995278
1.068386
1.170990
1.133400
1.202363
1.268331
1.190725
1.023365
1.046144
1.128363
1.064073
1.228036
1.287107
1.326592
1.377576
1.359746
1.461587
0.129937
0.261069
0.389656
0.391474
0.386659
0.515415
0.519427
0.637303
0.641340
0.763064
0.643408
0.877545
0.879407
0.643410
0.631338
0.754355
0.865704
0.872964
0.855736
0.970640
0.986079
0.762133
0.878470
0.874563
0.989414
0.979894
1.068611
1.080016
1.183042
1.088066
1.270658
1.279080
1.092825
1.367692
1.283772
1.284759
1.192541
1.369181
1.281955
1.094286
1.444106
1.448597
1.521673
1.449137
1.586752
1.586923
1.445645
1.092362
1.187725
1.086864
1.275156
1.077536
1.053715
1.159201
1.242141
1.258395
1.221655
1.317319
1.350684
1.384767
1.406183
1.487809
1.423046
1.545139
1.561923
1.435624
1.358466
1.444632
1.497171
1.523669
1.465241
1.542726
1.595304
1.512953
1.574325
1.582558
1.628421
1.644466
1.167129
1.264114
1.248487
1.354512
1.321722
1.437946
1.425784
1.489221
1.408918
1.562365
1.545111
1.387033
1.514178
1.583040
1.574908
1.644516
1.628167
1.444715
1.522833
1.495132
1.593812
1.538729
0.128712
0.127147
0.256656
0.125288
0.382567
0.123104
0.249483
0.371137
0.377408
0.363675
0.488926
0.505211
0.120569
0.117663
0.239399
0.114331
0.354914
0.623462
0.613625
0.736335
0.601689
0.842989
0.110490
0.225797
0.332679
0.344668
0.318601
0.433574
0.465705
0.527436
0.550755
0.668659
0.570591
0.759258
0.785823
0.587442
0.499988
0.613582
0.691675
0.728095
0.649239
0.761677
0.841994
0.708427
0.808348
0.827284
0.900878
0.942752
0.106025
0.100785
0.207265
0.094527
0.301962
0.086847
0.180980
0.257937
0.282076
0.228045
0.325213
0.388934
0.077016
0.063506
0.140006
0.467586
0.429180
0.537832
1.035133
1.012575
1.119813
0.985648
1.196641
0.953876
1.062478
1.131371
1.166704
1.090130
1.192495
1.265622
0.916711
0.873556
0.983459
1.326899
1.289615
1.380728
1.608710
1.635741
1.671402
1.657492
1.726809
1.674347
1.713896
1.763144
1.747290
1.774729
1.805469
1.775046
1.686656
1.694722
1.737976
1.698749
1.782364
1.816356
1.830731
1.851072
1.841210
1.879613
1.698846
1.745984
1.786531
1.786260
1.783189
1.820781
1.820133
1.849208
1.852048
1.877515
1.851688
1.898151
1.897756
1.848118
1.843064
1.872324
1.890678
1.895833
1.882432
1.904829
1.914171
1.870776
1.894651
1.888692
1.913387
1.902460
1.695053
1.687334
1.738828
1.675539
1.776179
1.659422
1.716046
1.750370
1.765330
1.730940
1.778974
1.807546
1.638663
1.612897
1.675628
1.833424
1.819981
1.854320
1.920174
1.925045
1.933362
1.927588
1.942673
1.927970
1.937888
1.944942
1.944597
1.943700
1.949406
1.948778
1.926189
1.922082
1.934818
1.952367
1.952642
1.954125
0.063298
0.078275
0.141522
0.090135
0.231336
0.099778
0.188185
0.292632
0.264764
0.315846
0.401874
0.329909
0.107655
0.114086
0.219731
0.119270
0.335106
0.434874
0.477814
0.544138
0.514341
0.655846
0.123348
0.240824
0.363629
0.350905
0.373621
0.486619
0.452543
0.608738
0.591832
0.688623
0.570789
0.804873
0.776689
0.545136
0.621931
0.728926
0.846153
0.827866
0.860186
0.959470
0.918393
0.628478
0.742821
0.702724
0.856011
0.768292
0.126461
0.128763
0.253873
0.130352
0.381250
0.131305
0.260868
0.390517
0.386809
0.392566
0.518283
0.507571
0.131697
0.131617
0.263111
0.131113
0.393159
0.631841
0.638834
0.753093
0.643191
0.870408
0.879965
0.926818
0.989504
0.966814
1.095706
1.000437
1.074112
1.176909
1.139672
1.207882
1.274364
1.197507
1.028182
1.050563
1.133345
1.068037
1.233092
1.294024
1.333107
1.384530
1.365792
1.468452
0.130212
0.261663
0.390448
0.392423
0.387311
0.516327
0.520755
0.638247
0.642538
0.764568
0.644870
0.879002
0.881238
0.645139
0.632041
0.755245
0.866458
0.874062
0.856171
0.971183
0.987405
0.764284
0.880679
0.877149
0.991587
0.982919
1.068868
1.080686
1.183857
1.089177
1.271109
1.280063
1.094398
1.368857
1.285310
1.286857
1.194374
1.371547
1.284616
1.096334
1.444840
1.449959
1.523245
1.451139
1.587853
1.588745
1.448310
1.094882
1.190595
1.089860
1.278402
1.081016
1.053599
1.159110
1.241640
1.258352
1.220749
1.316360
1.350712
1.383302
1.405201
1.486836
1.422598
1.543610
1.561004
1.435752
1.356581
1.442626
1.494588
1.521587
1.462220
1.539543
1.593196
1.513206
1.574054
1.582966
1.627596
1.645064
1.171085
1.267962
1.252984
1.358159
1.326740
1.441308
1.429892
1.493761
1.413755
1.566518
1.550039
1.392528
1.517165
1.585600
1.578271
1.646621
1.631894
1.450632
1.528481
1.501433
1.599091
1.545369
0.128947
0.127358
0.257076
0.125453
0.383087
0.123220
0.249730
0.371390
0.377794
0.363803
0.489119
0.505747
0.120638
0.117689
0.239470
0.114319
0.354930
0.623938
0.613889
0.736679
0.601760
0.843132
0.110444
0.225727
0.332514
0.344587
0.318372
0.433280
0.465613
0.526982
0.550388
0.668207
0.570344
0.758562
0.785281
0.587342
0.499482
0.612938
0.690809
0.727292
0.648351
0.760555
0.841017
0.708316
0.807999
0.827166
0.900239
0.942631
0.105950
0.100689
0.207098
0.094417
0.301691
0.086734
0.180779
0.257657
0.281788
0.227801
0.324854
0.388546
0.076911
0.063424
0.139851
0.467063
0.428676
0.537150
1.034685
1.011839
1.118987
0.984673
1.195386
0.952714
1.061123
1.129593
1.165158
1.088181
1.190246
1.263896
0.915415
0.872177
0.981804
1.324656
1.287076
1.377928
1.615029
1.641361
1.677324
1.662356
1.732269
1.678420
1.718291
1.767024
1.751980
1.777780
1.808806
1.779996
1.689914
1.697155
1.740726
1.700367
1.784576
1.820757
1.834331
1.854905
1.843990
1.882871
1.699674
1.747075
1.787069
1.787633
1.782911
1.820763
1.821793
1.848642
1.852315
1.878078
1.852795
1.898198
1.898618
1.850065
1.841684
1.871239
1.889110
1.895069
1.880076
1.902832
1.913740
1.872996
1.896324
1.891167
1.914538
1.905158
1.695113
1.686649
1.738328
1.674140
1.775109
1.657346
1.714062
1.747801
1.763497
1.727678
1.775838
1.805916
1.635958
1.609615
1.672321
1.831252
1.817043
1.851646
1.922331
1.926461
1.935008
1.928250
1.943839
1.927871
1.938102
1.944759
1.945094
1.942833
1.948893
1.949506
1.925327
1.920461
1.933579
1.952709
1.952438
1.954161
SCALARS solution_1 double
LOOKUP_TABLE defaul
0.000000
0.000000
0.000000
0.000000
0.000000
0.000000
0.000000
0.000000
0.000000
0.000000
0.000000
0.000000
0.000000
0.000000
0.000000
0.000000
0.000000
0.000000
0.000000
0.000000
0.000000
0.000000
0.000000
0.000000
0.000000
0.000000
0.000000
0.000000
0.000000
0.000000
0.000000
0.000000
0.000000
0.000000
0.000000
0.000000
0.000000
0.000000
0.000000
0.000000
0.000000
0.000000
0.000000
0.000000
0.000000
0.000000
0.000000
0.000000
0.000000
0.000000
0.000000
0.000000
0.000000
0.000000
0.000000
0.000000
0.000000
0.000000
0.000000
0.000000
0.000000
0.000000
0.000000
0.000000
0.000000
0.000000
0.000000
0.000000
0.000000
0.000000
0.000000
0.000000
0.000000
0.000000
0.000000
0.000000
0.000000
0.000000
0.000000
0.000000
0.000000
0.000000
0.000000
0.000000
0.000000
0.000000
0.000000
0.000000
0.000000
0.000000
0.000000
0.000000
0.000000
0.000000
0.000000
0.000000
0.000000