# vtk DataFile Version 2.0
this shit
ASCII
DATASET POLYDATA
POINTS 2113 double
0.000000 0.000000 0.000000
1.000000 0.000000 0.000000
1.000000 1.000000 0.000000
0.000000 1.000000 0.000000
0.031250 0.000000 0.000000
0.062500 0.000000 0.000000
0.093750 0.000000 0.000000
0.125000 0.000000 0.000000
0.156250 0.000000 0.000000
0.187500 0.000000 0.000000
0.218750 0.000000 0.000000
0.250000 0.000000 0.000000
0.281250 0.000000 0.000000
0.312500 0.000000 0.000000
0.343750 0.000000 0.000000
0.375000 0.000000 0.000000
0.406250 0.000000 0.000000
0.437500 0.000000 0.000000
0.468750 0.000000 0.000000
0.500000 0.000000 0.000000
0.531250 0.000000 0.000000
0.562500 0.000000 0.000000
0.593750 0.000000 0.000000
0.625000 0.000000 0.000000
0.656250 0.000000 0.000000
0.687500 0.000000 0.000000
0.718750 0.000000 0.000000
0.750000 0.000000 0.000000
0.781250 0.000000 0.000000
0.812500 0.000000 0.000000
0.843750 0.000000 0.000000
0.875000 0.000000 0.000000
0.906250 0.000000 0.000000
0.937500 0.000000 0.000000
0.968750 0.000000 0.000000
1.000000 0.031250 0.000000
1.000000 0.062500 0.000000
1.000000 0.093750 0.000000
1.000000 0.125000 0.000000
1.000000 0.156250 0.000000
1.000000 0.187500 0.000000
1.000000 0.218750 0.000000
1.000000 0.250000 0.000000
1.000000 0.281250 0.000000
1.000000 0.312500 0.000000
1.000000 0.343750 0.000000
1.000000 0.375000 0.000000
1.000000 0.406250 0.000000
1.000000 0.437500 0.000000
1.000000 0.468750 0.000000
1.000000 0.500000 0.000000
1.000000 0.531250 0.000000
1.000000 0.562500 0.000000
1.000000 0.593750 0.000000
1.000000 0.625000 0.000000
1.000000 0.656250 0.000000
1.000000 0.687500 0.000000
1.000000 0.718750 0.000000
1.000000 0.750000 0.000000
1.000000 0.781250 0.000000
1.000000 0.812500 0.000000
1.000000 0.843750 0.000000
1.000000 0.875000 0.000000
1.000000 0.906250 0.000000
1.000000 0.937500 0.000000
1.000000 0.968750 0.000000
0.968750 1.000000 0.000000
0.937500 1.000000 0.000000
0.906250 1.000000 0.000000
0.875000 1.000000 0.000000
0.843750 1.000000 0.000000
0.812500 1.000000 0.000000
0.781250 1.000000 0.000000
0.750000 1.000000 0.000000
0.718750 1.000000 0.000000
0.687500 1.000000 0.000000
0.656250 1.000000 0.000000
0.625000 1.000000 0.000000
0.593750 1.000000 0.000000
0.562500 1.000000 0.000000
0.531250 1.000000 0.000000
0.500000 1.000000 0.000000
0.468750 1.000000 0.000000
0.437500 1.000000 0.000000
0.406250 1.000000 0.000000
0.375000 1.000000 0.000000
0.343750 1.000000 0.000000
0.312500 1.000000 0.000000
0.281250 1.000000 0.000000
0.250000 1.000000 0.000000
0.218750 1.000000 0.000000
0.187500 1.000000 0.000000
0.156250 1.000000 0.000000
0.125000 1.000000 0.000000
0.093750 1.000000 0.000000
0.062500 1.000000 0.000000
0.031250 1.000000 0.000000
0.000000 0.968750 0.000000
0.000000 0.937500 0.000000
0.000000 0.906250 0.000000
0.000000 0.875000 0.000000
0.000000 0.843750 0.000000
0.000000 0.812500 0.000000
0.000000 0.781250 0.000000
0.000000 0.750000 0.000000
0.000000 0.718750 0.000000
0.000000 0.687500 0.000000
0.000000 0.656250 0.000000
0.000000 0.625000 0.000000
0.000000 0.593750 0.000000
0.000000 0.562500 0.000000
0.000000 0.531250 0.000000
0.000000 0.500000 0.000000
0.000000 0.468750 0.000000
0.000000 0.437500 0.000000
0.000000 0.406250 0.000000
0.000000 0.375000 0.000000
0.000000 0.343750 0.000000
0.000000 0.312500 0.000000
0.000000 0.281250 0.000000
0.000000 0.250000 0.000000
0.000000 0.218750 0.000000
0.000000 0.187500 0.000000
0.000000 0.156250 0.000000
0.000000 0.125000 0.000000
0.000000 0.093750 0.000000
0.000000 0.062500 0.000000
0.000000 0.031250 0.000000
0.499581 0.500364 0.000000
0.664074 0.335221 0.000000
0.334987 0.335416 0.000000
0.335408 0.664620 0.000000
0.664394 0.664469 0.000000
0.396260 0.167993 0.000000
0.191795 0.192006 0.000000
0.602973 0.167974 0.000000
0.499376 0.314643 0.000000
0.807846 0.191850 0.000000
0.557394 0.441921 0.000000
0.441530 0.442111 0.000000
0.603389 0.831812 0.000000
0.807949 0.807968 0.000000
0.396827 0.831764 0.000000
0.500070 0.685182 0.000000
0.192052 0.807976 0.000000
0.441843 0.558267 0.000000
0.557741 0.558116 0.000000
0.684704 0.499837 0.000000
0.831599 0.396521 0.000000
0.831617 0.603224 0.000000
0.314594 0.500140 0.000000
0.168040 0.603396 0.000000
0.167962 0.396740 0.000000
0.215468 0.093269 0.000000
0.104387 0.104465 0.000000
0.328733 0.086918 0.000000
0.293383 0.176682 0.000000
0.442710 0.083952 0.000000
0.360467 0.251950 0.000000
0.268079 0.268421 0.000000
0.556858 0.083959 0.000000
0.499586 0.165153 0.000000
0.545821 0.243771 0.000000
0.453092 0.243791 0.000000
0.638606 0.251859 0.000000
0.581402 0.319809 0.000000
0.417423 0.319891 0.000000
0.670888 0.086924 0.000000
0.784281 0.093223 0.000000
0.706029 0.176608 0.000000
0.895535 0.104357 0.000000
0.731245 0.268233 0.000000
0.464139 0.380682 0.000000
0.392953 0.393459 0.000000
0.534602 0.380617 0.000000
0.499389 0.433958 0.000000
0.605970 0.393252 0.000000
0.520010 0.479532 0.000000
0.478988 0.479675 0.000000
0.784402 0.906719 0.000000
0.895565 0.895575 0.000000
0.671062 0.912981 0.000000
0.706286 0.823218 0.000000
0.557126 0.915895 0.000000
0.639036 0.747882 0.000000
0.731446 0.731482 0.000000
0.443051 0.915882 0.000000
0.500140 0.834590 0.000000
0.453783 0.755967 0.000000
0.546460 0.755969 0.000000
0.361048 0.747880 0.000000
0.418058 0.680017 0.000000
0.581979 0.679958 0.000000
0.329075 0.912929 0.000000
0.215700 0.906653 0.000000
0.293849 0.823157 0.000000
0.104443 0.895568 0.000000
0.268474 0.731547 0.000000
0.535193 0.619325 0.000000
0.606347 0.606514 0.000000
0.464735 0.619378 0.000000
0.499871 0.566311 0.000000
0.393359 0.606720 0.000000
0.479178 0.520941 0.000000
0.520206 0.520881 0.000000
0.565528 0.500043 0.000000
0.618700 0.464607 0.000000
0.618828 0.535161 0.000000
0.679480 0.417804 0.000000
0.679643 0.581856 0.000000
0.747561 0.360741 0.000000
0.755607 0.453503 0.000000
0.834394 0.499906 0.000000
0.755646 0.546223 0.000000
0.915817 0.442852 0.000000
0.915812 0.556998 0.000000
0.747672 0.638925 0.000000
0.823009 0.293559 0.000000
0.906611 0.215534 0.000000
0.912869 0.328876 0.000000
0.823063 0.706170 0.000000
0.912875 0.670956 0.000000
0.906613 0.784317 0.000000
0.433690 0.500275 0.000000
0.380575 0.535463 0.000000
0.380429 0.464911 0.000000
0.319884 0.582134 0.000000
0.319668 0.418106 0.000000
0.251989 0.639117 0.000000
0.243828 0.546431 0.000000
0.165183 0.500053 0.000000
0.243760 0.453736 0.000000
0.083976 0.557117 0.000000
0.083965 0.442984 0.000000
0.251770 0.361006 0.000000
0.176754 0.706296 0.000000
0.093308 0.784379 0.000000
0.086976 0.671062 0.000000
0.176564 0.293781 0.000000
0.086915 0.329024 0.000000
0.093223 0.215669 0.000000
0.113079 0.050954 0.000000
0.055180 0.055207 0.000000
0.171953 0.048014 0.000000
0.159483 0.098089 0.000000
0.231256 0.045835 0.000000
0.202425 0.142101 0.000000
0.149669 0.149812 0.000000
0.290800 0.044227 0.000000
0.271956 0.089616 0.000000
0.309734 0.131484 0.000000
0.255873 0.136082 0.000000
0.363864 0.128149 0.000000
0.344731 0.171579 0.000000
0.242349 0.183434 0.000000
0.350473 0.043078 0.000000
0.410223 0.042334 0.000000
0.385676 0.085051 0.000000
0.470008 0.041971 0.000000
0.418133 0.125967 0.000000
0.279539 0.222376 0.000000
0.231179 0.231460 0.000000
0.328210 0.215269 0.000000
0.314203 0.259115 0.000000
0.377058 0.210007 0.000000
0.346449 0.293763 0.000000
0.302657 0.303045 0.000000
0.529797 0.041971 0.000000
0.499787 0.083592 0.000000
0.526862 0.124885 0.000000
0.472482 0.124883 0.000000
0.581240 0.125964 0.000000
0.551290 0.165853 0.000000
0.447893 0.165863 0.000000
0.573066 0.206498 0.000000
0.524040 0.204781 0.000000
0.499461 0.242769 0.000000
0.475005 0.204792 0.000000
0.521246 0.279817 0.000000
0.477563 0.279825 0.000000
0.425990 0.206523 0.000000
0.622079 0.209956 0.000000
0.592207 0.246796 0.000000
0.608732 0.286719 0.000000
0.564949 0.282118 0.000000
0.652593 0.293630 0.000000
0.622638 0.326255 0.000000
0.540342 0.315932 0.000000
0.406763 0.246848 0.000000
0.433886 0.282161 0.000000
0.390199 0.286809 0.000000
0.458423 0.315970 0.000000
0.376294 0.326380 0.000000
0.589583 0.042338 0.000000
0.649324 0.043087 0.000000
0.613913 0.085061 0.000000
0.709004 0.044237 0.000000
0.635570 0.128141 0.000000
0.768583 0.045832 0.000000
0.727713 0.089604 0.000000
0.743716 0.136018 0.000000
0.689765 0.131456 0.000000
0.797269 0.141996 0.000000
0.757175 0.183318 0.000000
0.654585 0.171536 0.000000
0.827946 0.047981 0.000000
0.886880 0.050895 0.000000
0.840359 0.098003 0.000000
0.944807 0.055155 0.000000
0.850128 0.149674 0.000000
0.671026 0.215181 0.000000
0.719810 0.222250 0.000000
0.684977 0.258983 0.000000
0.768303 0.231284 0.000000
0.696523 0.302847 0.000000
0.403742 0.356979 0.000000
0.365092 0.365566 0.000000
0.442111 0.351197 0.000000
0.428732 0.385519 0.000000
0.480296 0.348270 0.000000
0.451121 0.411923 0.000000
0.418484 0.419016 0.000000
0.518436 0.348243 0.000000
0.499353 0.379027 0.000000
0.515401 0.408243 0.000000
0.483332 0.408286 0.000000
0.547674 0.411806 0.000000
0.528134 0.435955 0.000000
0.470679 0.436054 0.000000
0.556665 0.351119 0.000000
0.595114 0.356849 0.000000
0.570080 0.385392 0.000000
0.633886 0.365362 0.000000
0.580423 0.418824 0.000000
0.487012 0.457728 0.000000
0.461836 0.462467 0.000000
0.511853 0.457668 0.000000
0.499469 0.476710 0.000000
0.537126 0.462292 0.000000
0.506806 0.492919 0.000000
0.492267 0.492999 0.000000
0.886929 0.949099 0.000000
0.944816 0.944820 0.000000
0.828003 0.952001 0.000000
0.840445 0.901947 0.000000
0.768655 0.954140 0.000000
0.797401 0.857895 0.000000
0.850185 0.850200 0.000000
0.709088 0.955725 0.000000
0.727872 0.910329 0.000000
0.690002 0.868415 0.000000
0.743907 0.863870 0.000000
0.635854 0.871699 0.000000
0.654917 0.828274 0.000000
0.757363 0.816514 0.000000
0.649408 0.956852 0.000000
0.589681 0.957587 0.000000
0.614122 0.914813 0.000000
0.529932 0.957947 0.000000
0.581599 0.873843 0.000000
0.720054 0.777525 0.000000
0.768448 0.768475 0.000000
0.671362 0.784591 0.000000
0.685297 0.740753 0.000000
0.622516 0.789810 0.000000
0.652990 0.706089 0.000000
0.696785 0.696839 0.000000
[...]
POINT_DATA 2113
SCALARS solution_0 double
LOOKUP_TABLE defaul
0.000000
0.000000
0.000000
0.000000
0.000000
0.000000
0.000000
0.000000
0.000000
0.000000
0.000000
0.000000
0.000000
0.000000
0.000000
0.000000
0.000000
0.000000
0.000000
0.000000
0.000000
0.000000
0.000000
0.000000
0.000000
0.000000
0.000000
0.000000
0.000000
0.000000
0.000000
0.000000
0.000000
0.000000
0.000000
0.000000
0.000000
0.000000
0.000000
0.000000
0.000000
0.000000
0.000000
0.000000
0.000000
0.000000
0.000000
0.000000
0.000000
0.000000
0.000000
0.000000
0.000000
0.000000
0.000000
0.000000
0.000000
0.000000
0.000000
0.000000
0.000000
0.000000
0.000000
0.000000
0.000000
0.000000
0.000000
0.000000
0.000000
0.000000
0.000000
0.000000
0.000000
0.000000
0.000000
0.000000
0.000000
0.000000
0.000000
0.000000
0.000000
0.000000
0.000000
0.000000
0.000000
0.000000
0.000000
0.000000
0.000000
0.000000
0.000000
0.000000
0.000000
0.000000
0.000000
0.000000
0.000000
0.000000
0.000000
0.000000
0.000000
0.000000
0.000000
0.000000
0.000000
0.000000
0.000000
0.000000
0.000000
0.000000
0.000000
0.000000
0.000000
0.000000
0.000000
0.000000
0.000000
0.000000
0.000000
0.000000
0.000000
0.000000
0.000000
0.000000
0.000000
0.000000
0.000000
0.000000
-2.000591
-1.512950
-1.510942
-1.511983
-1.512925
-0.954754
-0.643207
-0.955428
-1.671291
-0.643802
-1.935822
-1.934831
-0.956111
-0.644038
-0.956572
-1.671901
-0.644015
-1.934759
-1.935394
-1.673550
-0.957115
-0.957280
-1.671127
-0.955342
-0.955079
-0.361938
-0.207523
-0.463414
-0.840043
-0.513322
-1.289023
-1.114973
-0.513488
-0.992370
-1.372724
-1.372126
-1.290414
-1.634005
-1.632683
-0.463776
-0.362122
-0.840901
-0.207468
-1.116494
-1.850265
-1.784123
-1.850929
-1.957984
-1.785820
-1.992701
-1.992354
-0.362171
-0.207542
-0.464118
-0.841130
-0.514280
-1.290637
-1.116758
-0.514410
-0.993776
-1.373647
-1.373483
-1.290806
-1.633843
-1.633986
-0.464506
-0.362564
-0.841658
-0.207570
-1.116303
-1.850684
-1.785542
-1.850516
-1.957638
-1.784568
-1.992182
-1.992455
-1.958651
-1.851983
-1.851841
-1.635244
-1.635176
-1.291501
-1.375082
-0.994844
-1.375080
-0.514741
-0.514815
-1.291686
-0.841711
-0.362485
-0.464645
-0.842022
-0.464760
-0.362690
-1.957639
-1.850281
-1.850189
-1.633261
-1.632883
-1.289971
-1.372597
-0.992537
-1.372398
-0.513511
-0.513475
-1.289324
-0.840990
-0.362304
-0.463896
-0.840333
-0.463649
-0.362047
-0.110775
-0.059331
-0.154559
-0.291348
-0.190702
-0.512979
-0.410925
-0.219412
-0.419245
-0.663977
-0.597306
-0.713444
-0.907368
-0.752170
-0.240766
-0.254915
-0.494681
-0.261975
-0.746085
-0.990409
-0.883280
-1.074443
-1.213998
-1.136185
-1.413476
-1.326701
-0.261991
-0.519571
-0.762473
-0.762328
-0.746458
-0.983279
-0.982920
-1.177349
-1.197034
-1.382524
-1.196815
-1.537729
-1.537365
-1.176648
-1.137199
-1.342341
-1.477833
-1.518178
-1.415248
-1.584935
-1.662297
-1.341260
-1.517188
-1.476389
-1.661593
-1.583148
-0.254980
-0.240894
-0.494975
-0.219561
-0.713977
-0.190799
-0.419568
-0.597782
-0.664554
-0.513294
-0.752925
-0.908198
-0.154539
-0.110688
-0.291367
-0.059290
-0.411090
-1.075616
-0.991622
-1.215583
-0.884348
-1.328548
-1.720659
-1.663750
-1.756898
-1.826249
-1.774585
-1.902211
-1.873427
-1.774929
-1.858228
-1.916155
-1.915846
-1.903113
-1.952891
-1.952357
-1.757910
-1.722237
-1.827513
-1.665671
-1.874807
-1.981566
-1.972706
-1.981793
-1.995399
-1.973342
-1.999735
-1.999613
-0.110657
-0.059306
-0.154551
-0.291365
-0.190869
-0.513371
-0.411267
-0.219705
-0.419693
-0.664831
-0.597899
-0.714532
-0.908602
-0.753075
-0.241200
-0.255408
-0.495565
-0.262489
-0.747317
-0.991827
-0.884648
-1.075895
-1.215730
-1.137644
-1.415274
-1.328703
-0.262508
-0.520524
-0.763717
-0.763606
-0.747618
-0.984598
-0.984335
-1.178441
-1.198332
-1.383708
-1.198218
-1.538466
-1.538443
-1.178094
-1.138065
-1.343011
-1.477940
-1.518588
-1.414986
-1.584359
-1.662522
-1.342739
-1.518505
-1.477944
-1.662559
-1.584806
-0.255491
-0.241332
-0.495817
-0.219920
-0.715007
-0.191081
-0.420176
-0.598450
-0.665427
-0.513723
-0.753417
-0.909166
-0.154724
-0.110780
-0.291627
-0.059313
-0.411282
-1.076258
-0.992003
-1.215677
-0.884435
-1.327969
-1.721994
-1.665520
-1.757790
-1.827153
-1.775065
-1.902666
-1.874433
-1.775015
-1.858215
-1.915722
-1.915825
-1.902291
-1.952181
-1.952433
-1.757597
-1.721491
-1.826686
-1.664490
-1.873571
-1.981406
-1.972964
-1.981281
-1.995150
-1.972525
-1.999525
-1.999638
-1.995556
-1.982089
-1.981944
-1.953297
-1.953035
-1.903601
-1.917049
-1.859648
-1.916940
-1.776588
-1.776538
-1.903322
-1.828077
-1.722833
-1.759098
-1.585514
-1.664127
-1.827845
-1.758976
-1.722689
-1.664071
-1.585491
-1.415799
-1.479073
-1.344110
-1.520050
-1.138691
-1.179458
-1.540118
-0.985448
-1.199631
-1.199640
-1.385295
-0.985502
-1.179533
-1.540094
-0.748057
-0.764376
-0.520982
-0.764414
-0.262687
-0.262710
-0.748182
-1.520007
-1.344160
-1.479090
-1.138889
-1.415934
-1.216085
-0.992071
-1.076571
-0.753283
-0.909444
-0.513549
-0.598402
-0.420217
-0.665548
-0.191081
-0.219983
-0.715260
-0.291518
-0.110754
-0.154705
-0.496047
-0.241441
-0.255633
-1.216367
-1.076872
-0.992428
-0.909695
-0.753630
-0.715435
-0.665715
-0.420324
-0.598635
-0.220041
-0.191168
-0.513848
-0.496164
-0.255679
-0.241505
-0.291713
-0.154800
-0.110826
-1.995170
-1.981304
-1.981384
-1.952179
-1.952284
-1.902198
-1.915665
-1.857940
-1.915667
-1.774530
-1.774459
-1.902214
-1.826511
-1.721243
-1.757193
-1.583985
-1.661827
-1.826320
-1.756961
-1.720800
-1.661668
-1.583343
-1.414546
-1.477229
-1.342016
-1.517747
-1.136960
-1.177251
-1.537554
-0.983321
-1.197133
-1.197041
-1.382623
-0.983181
-1.176995
-1.537459
-0.746449
-0.762547
-0.519647
-0.762508
-0.262016
-0.262013
-0.746327
-1.517438
-1.341598
-1.476668
-1.136527
-1.413703
-1.215221
-0.991587
-1.075446
-0.753090
-0.908165
-0.513515
-0.598008
-0.419767
-0.664720
-0.190905
-0.219664
-0.714004
-0.291528
-0.110755
-0.154639
-0.495023
-0.240976
-0.255043
-1.214264
-1.074766
-0.990651
-0.907711
-0.752322
-0.713732
-0.664242
-0.419418
-0.597466
-0.219531
-0.190788
-0.513063
-0.494906
-0.255005
-0.240897
-0.291380
-0.154572
-0.110750
-0.030837
-0.015942
-0.044630
-0.085990
-0.057339
-0.160761
-0.124651
-0.068979
-0.133643
-0.225122
-0.194276
-0.253300
-0.328320
-0.251080
-0.079564
-0.089148
-0.173570
-0.097733
-0.278808
-0.353293
-0.304109
-0.398618
-0.464159
-0.440045
-0.580728
-0.524902
-0.105344
-0.205995
-0.321943
-0.301699
-0.339597
-0.442975
-0.392254
-0.566642
-0.540803
-0.632826
-0.511115
-0.755181
-0.718859
-0.477541
-0.588702
-0.690847
-0.813676
-0.786780
-0.835963
-0.933523
-0.876257
-0.557387
-0.677715
-0.631668
-0.798726
-0.700345
-0.111972
-0.117635
-0.231009
-0.122334
-0.354646
-0.126089
-0.248736
-0.377110
-0.367150
-0.384573
-0.505573
-0.480656
-0.128900
-0.130771
-0.259332
-0.131707
-0.389547
-0.606991
-0.621552
-0.731858
-0.632437
-0.853694
-0.820703
-0.763407
-0.872382
-0.939799
-0.918490
-1.055899
-1.001016
-0.959119
-1.035275
-1.147650
-1.104744
-1.184775
-1.254456
-1.167585
-0.994358
-1.024282
-1.108068
-1.049009
-1.216223
-1.273654
-1.223908
-1.317211
-1.373196
-1.354753
-1.465486
-1.422597
-0.131709
-0.262865
-0.392056
-0.392029
-0.389608
-0.518072
-0.517986
-0.639845
-0.643382
-0.764412
-0.643335
-0.880282
-0.880204
-0.639691
-0.632700
-0.756508
-0.867320
-0.876005
-0.854204
-0.971741
-0.990160
-0.756245
-0.875765
-0.866944
-0.989982
-0.971214
-1.069360
-1.083860
-1.189706
-1.093449
-1.278672
-1.288639
-1.098180
-1.380165
-1.293545
-1.293413
-1.199426
-1.379866
-1.288248
-1.098084
-1.459164
-1.464001
-1.540014
-1.463839
-1.608422
-1.608246
-1.458674
-1.093146
-1.189253
-1.083356
-1.278026
-1.068670
-1.049853
-1.159905
-1.243186
-1.263570
-1.217411
-1.319158
-1.360170
-1.387868
-1.413738
-1.500682
-1.434150
-1.559964
-1.579704
-1.449255
-1.356333
-1.449451
-1.504068
-1.534844
-1.467393
-1.551958
-1.612204
-1.530506
-1.594252
-1.603784
-1.650642
-1.669152
-1.159004
-1.262665
-1.242121
-1.359301
-1.317911
-1.448441
-1.433098
-1.499456
-1.412490
-1.578541
-1.558556
-1.386437
-1.529798
-1.603243
-1.593394
-1.668796
-1.649625
-1.447819
-1.533210
-1.502266
-1.610627
-1.550031
-0.130775
-0.128902
-0.259366
-0.126111
-0.384696
-0.122371
-0.248838
-0.367363
-0.377290
-0.354896
-0.480990
-0.505808
-0.117683
-0.112028
-0.231150
-0.105395
-0.339845
-0.621886
-0.607387
-0.732310
-0.589149
-0.836571
-0.097774
-0.206121
-0.301894
-0.322189
-0.278951
-0.392517
-0.443319
-0.477848
-0.511496
-0.633364
-0.541244
-0.719521
-0.755893
-0.567120
-0.440268
-0.557781
-0.632193
-0.678314
-0.581168
-0.701025
-0.799549
-0.691426
-0.787489
-0.814366
-0.877108
-0.934293
-0.089158
-0.079549
-0.173614
-0.068930
-0.253364
-0.057281
-0.133575
-0.194213
-0.225122
-0.160679
-0.251042
-0.328416
-0.044581
-0.030811
-0.085926
-0.015932
-0.124589
-0.398765
-0.353372
-0.464404
-0.304136
-0.525269
-1.025203
-0.995335
-1.109159
-0.960137
-1.186074
-0.919514
-1.036498
-1.106152
-1.149046
-1.057278
-1.169155
-1.255962
-0.873365
-0.821623
-0.940954
-0.764238
-1.002318
-1.318895
-1.275383
-1.375033
-1.225606
-1.424544
-1.626564
-1.591410
-1.655977
-1.694965
-1.679953
-1.755256
-1.727966
-1.698783
-1.741221
-1.794596
-1.777356
-1.807291
-1.840376
-1.807631
-1.712717
-1.721940
-1.767974
-1.726600
-1.815662
-1.852372
-1.832506
-1.867734
-1.889891
-1.878943
-1.920662
-1.907377
-1.726776
-1.776902
-1.820055
-1.819887
-1.816171
-1.856509
-1.856175
-1.886770
-1.890143
-1.917621
-1.889984
-1.939689
-1.939545
-1.886291
-1.879736
-1.911393
-1.930945
-1.936877
-1.921629
-1.946020
-1.956805
-1.910781
-1.936440
-1.930235
-1.956534
-1.945247
-1.722461
-1.713570
-1.768656
-1.699957
-1.808132
-1.681413
-1.742536
-1.778778
-1.795753
-1.756905
-1.809131
-1.841353
-1.657670
-1.628435
-1.696736
-1.593395
-1.729783
-1.868815
-1.853709
-1.891047
-1.834051
-1.908563
-1.964250
-1.956402
-1.969247
-1.978343
-1.971720
-1.988227
-1.984454
-1.971845
-1.982688
-1.990144
-1.990044
-1.988525
-1.994809
-1.994635
-1.969615
-1.964846
-1.978782
-1.957204
-1.984940
-1.998314
-1.997157
-1.998388
-2.000030
-1.997381
-2.000540
-2.000497
-0.030809
-0.015936
-0.044575
-0.085900
-0.057266
-0.160679
-0.124627
-0.068934
-0.133551
-0.225103
-0.194194
-0.253395
-0.328437
-0.251076
-0.079580
-0.089205
-0.173669
-0.097826
-0.279017
-0.353446
-0.304262
-0.398820
-0.464520
-0.440327
-0.581313
-0.525481
-0.105465
-0.206208
-0.322324
-0.301983
-0.340083
-0.443540
-0.392600
-0.567425
-0.541447
-0.633557
-0.511631
-0.756137
-0.719698
-0.477933
-0.589602
-0.691822
-0.814830
-0.787836
-0.837202
-0.934821
-0.877417
-0.557862
-0.678433
-0.632309
-0.799729
-0.701207
-0.112138
-0.117834
-0.231378
-0.122559
-0.355241
-0.126328
-0.249200
-0.377815
-0.367807
-0.385307
-0.506496
-0.481461
-0.129152
-0.131029
-0.259837
-0.131967
-0.390291
-0.607989
-0.622618
-0.733022
-0.633547
-0.854993
-0.821839
-0.764511
-0.873566
-0.941189
-0.919730
-1.057501
-1.002610
-0.960407
-1.036712
-1.149236
-1.106342
-1.186335
-1.256128
-1.169348
-0.995688
-1.025650
-1.109522
-1.050407
-1.217747
-1.275522
-1.225825
-1.319000
-1.375099
-1.356444
-1.467365
-1.424610
-0.131970
-0.263377
-0.392807
-0.392787
-0.390355
-0.519018
-0.518952
-0.640950
-0.644512
-0.765679
-0.644469
-0.881628
-0.881565
-0.640821
-0.633757
-0.757715
-0.868577
-0.877312
-0.855384
-0.972971
-0.991524
-0.757501
-0.877123
-0.868280
-0.991392
-0.972600
-1.070492
-1.085094
-1.190907
-1.094764
-1.279690
-1.289774
-1.099554
-1.381221
-1.294782
-1.294730
-1.200776
-1.381143
-1.289623
-1.099491
-1.459986
-1.464981
-1.540928
-1.464959
-1.609091
-1.609091
-1.459908
-1.094572
-1.190677
-1.084784
-1.279442
-1.070087
-1.050868
-1.160871
-1.243960
-1.264455
-1.218056
-1.319693
-1.360952
-1.388117
-1.414141
-1.500945
-1.434684
-1.559919
-1.579833
-1.449917
-1.356405
-1.449371
-1.503637
-1.534607
-1.466768
-1.551173
-1.611831
-1.531059
-1.594559
-1.604267
-1.650679
-1.669567
-1.160458
-1.264121
-1.243613
-1.360717
-1.319455
-1.449777
-1.434515
-1.500886
-1.413998
-1.579842
-1.560005
-1.388044
-1.531005
-1.604265
-1.594552
-1.669590
-1.650750
-1.449496
-1.534811
-1.504017
-1.612104
-1.551857
-0.131041
-0.129177
-0.259885
-0.126370
-0.385420
-0.122613
-0.249315
-0.368009
-0.377981
-0.355486
-0.481770
-0.506690
-0.117897
-0.112220
-0.231543
-0.105568
-0.340392
-0.622899
-0.608343
-0.733403
-0.590043
-0.837679
-0.097926
-0.206444
-0.302338
-0.322688
-0.279329
-0.393043
-0.443990
-0.478411
-0.512157
-0.634137
-0.541991
-0.720251
-0.756735
-0.567944
-0.440724
-0.558327
-0.632669
-0.678916
-0.581511
-0.701371
-0.800170
-0.692376
-0.788429
-0.815389
-0.877969
-0.935341
-0.089286
-0.079652
-0.173846
-0.069009
-0.253671
-0.057336
-0.133711
-0.194382
-0.225358
-0.160787
-0.251216
-0.328763
-0.044615
-0.030828
-0.085980
-0.015936
-0.124644
-0.399112
-0.353614
-0.464706
-0.304283
-0.525482
-1.026133
-0.996163
-1.109910
-0.960853
-1.186594
-0.920103
-1.037006
-1.106404
-1.149429
-1.057388
-1.169104
-1.256196
-0.873816
-0.821931
-0.941181
-0.764402
-1.002277
-1.318809
-1.275145
-1.374600
-1.225225
-1.423764
-1.628275
-1.593306
-1.657489
-1.696518
-1.681262
-1.756624
-1.729568
-1.699891
-1.742328
-1.795482
-1.778480
-1.807946
-1.841029
-1.808793
-1.713631
-1.722667
-1.768654
-1.727137
-1.816098
-1.853318
-1.833721
-1.868410
-1.890614
-1.879366
-1.921167
-1.908153
-1.727121
-1.777181
-1.820081
-1.820114
-1.815999
-1.856293
-1.856371
-1.886333
-1.889905
-1.917388
-1.889954
-1.939286
-1.939344
-1.886479
-1.879102
-1.910766
-1.930167
-1.936284
-1.920661
-1.945136
-1.956272
-1.910988
-1.936456
-1.930485
-1.956392
-1.945558
-1.722612
-1.713525
-1.768541
-1.699708
-1.807758
-1.680951
-1.742009
-1.777984
-1.795173
-1.755891
-1.808085
-1.840735
-1.656989
-1.627539
-1.695768
-1.592302
-1.728564
-1.867975
-1.852655
-1.890021
-1.832793
-1.907398
-1.964406
-1.956793
-1.969186
-1.978385
-1.971457
-1.988189
-1.984625
-1.971397
-1.982344
-1.989760
-1.989823
-1.987993
-1.994421
-1.994548
-1.968996
-1.964064
-1.978117
-1.956258
-1.984266
-1.998204
-1.997214
-1.998144
-1.999921
-1.997020
-2.000461
-2.000504
-2.000064
-1.998457
-1.998399
-1.994911
-1.994784
-1.988659
-1.990370
-1.983053
-1.990300
-1.972317
-1.972243
-1.988454
-1.978944
-1.965034
-1.969969
-1.946228
-1.957366
-1.978673
-1.969761
-1.964707
-1.957230
-1.945874
-1.921863
-1.931391
-1.912093
-1.937511
-1.880498
-1.887750
-1.940474
-1.857768
-1.891300
-1.891251
-1.918648
-1.857688
-1.887614
-1.940411
-1.817522
-1.821594
-1.778724
-1.821563
-1.728735
-1.728717
-1.817433
-1.937328
-1.911890
-1.931110
-1.880294
-1.921507
-1.891302
-1.853984
-1.869346
-1.809421
-1.842170
-1.757204
-1.779366
-1.743430
-1.796616
-1.682318
-1.701180
-1.809256
-1.697031
-1.628724
-1.658265
-1.552235
-1.613107
-1.770096
-1.715083
-1.724221
-1.652194
-1.671218
-1.890967
-1.869084
-1.853684
-1.841974
-1.809160
-1.809116
-1.796438
-1.743286
-1.779168
-1.701081
-1.682222
-1.756998
-1.770005
-1.724164
-1.715001
-1.671186
-1.652122
-1.696888
-1.658177
-1.628646
-1.613053
-1.552218
-1.467663
-1.504640
-1.450326
-1.535744
-1.357156
-1.389048
-1.561211
-1.320587
-1.415274
-1.435995
-1.502263
-1.362238
-1.451376
-1.581268
-1.218716
-1.244819
-1.161694
-1.265520
-1.051468
-1.071269
-1.280933
-1.596109
-1.532633
-1.605903
-1.461554
-1.610761
-0.973676
-1.086047
-1.095854
-1.192095
-0.992499
-1.100745
-1.291153
-1.100751
-1.202143
-1.296239
-1.296243
-1.291159
-1.382748
-1.382759
-0.992522
-1.095883
-1.086108
-1.192127
-0.973778
-1.071387
-1.280962
-1.466615
-1.466606
-1.542606
-1.461531
-1.610747
-0.855879
-0.869203
-0.758264
-0.878065
-0.634151
-0.641434
-0.882491
-0.519418
-0.645083
-0.645101
-0.766436
-0.519454
-0.641493
-0.882507
-0.390618
-0.393112
-0.263580
-0.393129
-0.132063
-0.132070
-0.390665
-0.878111
-0.758346
-0.869296
-0.634253
-0.856023
-1.605863
-1.532595
-1.596055
-1.451356
-1.581211
-1.362257
-1.435988
-1.415300
-1.502236
-1.320692
-1.389141
-1.561173
-1.265584
-1.161825
-1.244941
-1.051655
-1.218911
-1.535742
-1.450404
-1.504681
-1.357325
-1.467728
-1.375298
-1.275642
-1.319430
-1.169405
-1.256742
-1.057519
-1.106633
-1.037185
-1.149780
-0.920149
-0.961025
-1.187093
-0.941169
-0.821819
-0.873778
-0.701197
-0.800128
-1.110378
-0.996467
-1.026578
-0.878144
-0.935750
-0.581319
-0.632504
-0.558194
-0.678814
-0.440597
-0.478344
-0.720245
-0.393022
-0.512174
-0.542074
-0.634191
-0.444085
-0.568075
-0.756828
-0.279301
-0.302350
-0.206473
-0.322744
-0.097941
-0.105601
-0.340491
-0.788605
-0.692557
-0.815657
-0.590232
-0.838058
-0.464521
-0.353468
-0.398973
-0.251117
-0.328665
-0.160736
-0.194323
-0.133683
-0.225296
-0.057329
-0.069010
-0.253623
-0.085958
-0.030829
-0.044617
-0.173840
-0.079661
-0.089300
-0.733755
-0.608599
-0.623225
-0.481960
-0.506972
-0.355625
-0.368175
-0.249439
-0.378175
-0.122676
-0.126442
-0.385648
-0.231636
-0.112270
-0.117957
-0.260050
-0.129258
-0.131129
-1.375452
-1.319640
-1.275874
-1.256980
-1.169687
-1.187339
-1.150065
-1.037513
-1.106950
-0.961343
-0.920501
-1.057843
-1.110632
-1.026816
-0.996753
-0.935958
-0.878417
-0.941515
-0.874137
-0.822160
-0.800456
-0.701507
-0.838233
-0.815854
-0.692725
-0.788821
-0.590378
-0.568208
-0.757060
-0.444185
-0.542207
-0.512333
-0.634380
-0.393173
-0.478560
-0.720509
-0.340576
-0.322819
-0.206532
-0.302449
-0.105628
-0.097977
-0.279445
-0.679108
-0.558474
-0.632815
-0.440859
-0.581604
-0.733912
-0.623353
-0.608749
-0.507067
-0.482082
-0.385711
-0.378249
-0.249491
-0.368263
-0.126465
-0.122704
-0.355719
-0.260088
-0.131144
-0.129278
-0.231700
-0.117987
-0.112298
-0.464777
-0.399224
-0.353677
-0.328873
-0.251260
-0.253774
-0.225433
-0.133761
-0.194443
-0.069046
-0.057363
-0.160827
-0.173940
-0.089342
-0.079704
-0.086006
-0.044641
-0.030843
-1.999926
-1.998159
-1.998206
-1.994439
-1.994531
-1.988010
-1.989783
-1.982358
-1.989828
-1.971414
-1.971452
-1.988137
-1.978129
-1.964069
-1.969014
-1.945123
-1.956283
-1.978274
-1.969114
-1.964212
-1.956340
-1.945234
-1.920623
-1.930128
-1.910689
-1.936262
-1.878942
-1.886196
-1.939269
-1.856055
-1.889759
-1.889735
-1.917304
-1.855994
-1.886154
-1.939287
-1.815644
-1.819694
-1.776636
-1.819662
-1.726477
-1.726440
-1.815544
-1.936310
-1.910695
-1.930195
-1.878905
-1.920667
-1.889933
-1.852551
-1.867826
-1.807980
-1.840505
-1.755770
-1.777770
-1.741673
-1.794889
-1.680538
-1.699218
-1.807427
-1.695623
-1.627343
-1.656679
-1.550956
-1.611344
-1.768073
-1.712961
-1.722002
-1.650015
-1.668838
-1.889910
-1.867759
-1.852408
-1.840388
-1.807691
-1.807279
-1.794663
-1.741336
-1.777455
-1.698914
-1.680121
-1.755343
-1.767944
-1.721907
-1.712781
-1.668763
-1.649771
-1.695063
-1.656144
-1.626682
-1.610835
-1.550154
-1.466549
-1.503223
-1.448764
-1.534055
-1.355761
-1.387345
-1.559274
-1.318758
-1.413294
-1.433776
-1.500172
-1.359926
-1.448967
-1.579112
-1.217072
-1.242893
-1.159706
-1.263352
-1.049695
-1.069267
-1.278569
-1.593780
-1.530178
-1.603459
-1.459008
-1.608246
-0.971708
-1.083858
-1.093522
-1.189725
-0.990264
-1.098320
-1.288644
-1.098275
-1.199577
-1.293582
-1.293639
-1.288495
-1.380055
-1.380163
-0.990192
-1.093402
-1.083656
-1.189547
-0.971506
-1.068999
-1.278331
-1.463982
-1.463930
-1.539993
-1.458854
-1.608205
-0.854163
-0.867326
-0.756530
-0.876065
-0.632709
-0.639898
-0.880408
-0.518125
-0.643483
-0.643466
-0.764556
-0.518107
-0.639856
-0.880382
-0.389651
-0.392105
-0.262890
-0.392102
-0.131720
-0.131720
-0.389637
-0.875979
-0.756454
-0.867192
-0.632640
-0.853975
-1.603326
-1.529983
-1.593555
-1.448712
-1.578766
-1.359627
-1.433404
-1.412792
-1.499739
-1.318224
-1.386727
-1.558800
-1.263017
-1.159368
-1.242460
-1.049355
-1.216534
-1.533447
-1.448078
-1.502473
-1.355018
-1.465614
-1.374374
-1.274918
-1.318364
-1.168879
-1.255537
-1.057174
-1.105962
-1.036381
-1.148775
-0.919533
-0.960107
-1.185760
-0.940980
-0.821755
-0.873449
-0.701223
-0.799677
-1.108941
-0.995247
-1.025070
-0.877142
-0.934213
-0.581395
-0.632403
-0.557992
-0.678501
-0.440472
-0.478070
-0.719699
-0.392714
-0.511730
-0.541447
-0.633584
-0.443486
-0.567261
-0.756032
-0.279101
-0.302050
-0.206228
-0.322336
-0.097830
-0.105456
-0.339970
-0.787558
-0.691510
-0.814367
-0.589236
-0.836542
-0.464615
-0.353556
-0.398968
-0.251183
-0.328589
-0.160777
-0.194330
-0.133656
-0.225251
-0.057316
-0.068980
-0.253509
-0.085975