# vtk DataFile Version 2.0
this shit
ASCII
DATASET POLYDATA
POINTS 400 double
-3.141593 -3.141593 0.000000
-2.810899 -3.141593 0.000000
-2.480205 -3.141593 0.000000
-2.149511 -3.141593 0.000000
-1.818817 -3.141593 0.000000
-1.488123 -3.141593 0.000000
-1.157429 -3.141593 0.000000
-0.826735 -3.141593 0.000000
-0.496041 -3.141593 0.000000
-0.165347 -3.141593 0.000000
0.165347 -3.141593 0.000000
0.496041 -3.141593 0.000000
0.826735 -3.141593 0.000000
1.157429 -3.141593 0.000000
1.488123 -3.141593 0.000000
1.818817 -3.141593 0.000000
2.149511 -3.141593 0.000000
2.480205 -3.141593 0.000000
2.810899 -3.141593 0.000000
3.141593 -3.141593 0.000000
-3.141593 -2.810899 0.000000
-2.810899 -2.810899 0.000000
-2.480205 -2.810899 0.000000
-2.149511 -2.810899 0.000000
-1.818817 -2.810899 0.000000
-1.488123 -2.810899 0.000000
-1.157429 -2.810899 0.000000
-0.826735 -2.810899 0.000000
-0.496041 -2.810899 0.000000
-0.165347 -2.810899 0.000000
0.165347 -2.810899 0.000000
0.496041 -2.810899 0.000000
0.826735 -2.810899 0.000000
1.157429 -2.810899 0.000000
1.488123 -2.810899 0.000000
1.818817 -2.810899 0.000000
2.149511 -2.810899 0.000000
2.480205 -2.810899 0.000000
2.810899 -2.810899 0.000000
3.141593 -2.810899 0.000000
-3.141593 -2.480205 0.000000
-2.810899 -2.480205 0.000000
-2.480205 -2.480205 0.000000
-2.149511 -2.480205 0.000000
-1.818817 -2.480205 0.000000
-1.488123 -2.480205 0.000000
-1.157429 -2.480205 0.000000
-0.826735 -2.480205 0.000000
-0.496041 -2.480205 0.000000
-0.165347 -2.480205 0.000000
0.165347 -2.480205 0.000000
0.496041 -2.480205 0.000000
0.826735 -2.480205 0.000000
1.157429 -2.480205 0.000000
1.488123 -2.480205 0.000000
1.818817 -2.480205 0.000000
2.149511 -2.480205 0.000000
2.480205 -2.480205 0.000000
2.810899 -2.480205 0.000000
3.141593 -2.480205 0.000000
-3.141593 -2.149511 0.000000
-2.810899 -2.149511 0.000000
-2.480205 -2.149511 0.000000
-2.149511 -2.149511 0.000000
-1.818817 -2.149511 0.000000
-1.488123 -2.149511 0.000000
-1.157429 -2.149511 0.000000
-0.826735 -2.149511 0.000000
-0.496041 -2.149511 0.000000
-0.165347 -2.149511 0.000000
0.165347 -2.149511 0.000000
0.496041 -2.149511 0.000000
0.826735 -2.149511 0.000000
1.157429 -2.149511 0.000000
1.488123 -2.149511 0.000000
1.818817 -2.149511 0.000000
2.149511 -2.149511 0.000000
2.480205 -2.149511 0.000000
2.810899 -2.149511 0.000000
3.141593 -2.149511 0.000000
-3.141593 -1.818817 0.000000
-2.810899 -1.818817 0.000000
-2.480205 -1.818817 0.000000
-2.149511 -1.818817 0.000000
-1.818817 -1.818817 0.000000
-1.488123 -1.818817 0.000000
-1.157429 -1.818817 0.000000
-0.826735 -1.818817 0.000000
-0.496041 -1.818817 0.000000
-0.165347 -1.818817 0.000000
0.165347 -1.818817 0.000000
0.496041 -1.818817 0.000000
0.826735 -1.818817 0.000000
1.157429 -1.818817 0.000000
1.488123 -1.818817 0.000000
1.818817 -1.818817 0.000000
2.149511 -1.818817 0.000000
2.480205 -1.818817 0.000000
2.810899 -1.818817 0.000000
3.141593 -1.818817 0.000000
-3.141593 -1.488123 0.000000
-2.810899 -1.488123 0.000000
-2.480205 -1.488123 0.000000
-2.149511 -1.488123 0.000000
-1.818817 -1.488123 0.000000
-1.488123 -1.488123 0.000000
-1.157429 -1.488123 0.000000
-0.826735 -1.488123 0.000000
-0.496041 -1.488123 0.000000
-0.165347 -1.488123 0.000000
0.165347 -1.488123 0.000000
0.496041 -1.488123 0.000000
0.826735 -1.488123 0.000000
1.157429 -1.488123 0.000000
1.488123 -1.488123 0.000000
1.818817 -1.488123 0.000000
2.149511 -1.488123 0.000000
2.480205 -1.488123 0.000000
2.810899 -1.488123 0.000000
3.141593 -1.488123 0.000000
-3.141593 -1.157429 0.000000
-2.810899 -1.157429 0.000000
-2.480205 -1.157429 0.000000
-2.149511 -1.157429 0.000000
-1.818817 -1.157429 0.000000
-1.488123 -1.157429 0.000000
-1.157429 -1.157429 0.000000
-0.826735 -1.157429 0.000000
-0.496041 -1.157429 0.000000
-0.165347 -1.157429 0.000000
0.165347 -1.157429 0.000000
0.496041 -1.157429 0.000000
0.826735 -1.157429 0.000000
1.157429 -1.157429 0.000000
1.488123 -1.157429 0.000000
1.818817 -1.157429 0.000000
2.149511 -1.157429 0.000000
2.480205 -1.157429 0.000000
2.810899 -1.157429 0.000000
3.141593 -1.157429 0.000000
-3.141593 -0.826735 0.000000
-2.810899 -0.826735 0.000000
-2.480205 -0.826735 0.000000
-2.149511 -0.826735 0.000000
-1.818817 -0.826735 0.000000
-1.488123 -0.826735 0.000000
-1.157429 -0.826735 0.000000
-0.826735 -0.826735 0.000000
-0.496041 -0.826735 0.000000
-0.165347 -0.826735 0.000000
0.165347 -0.826735 0.000000
0.496041 -0.826735 0.000000
0.826735 -0.826735 0.000000
1.157429 -0.826735 0.000000
1.488123 -0.826735 0.000000
1.818817 -0.826735 0.000000
2.149511 -0.826735 0.000000
2.480205 -0.826735 0.000000
2.810899 -0.826735 0.000000
3.141593 -0.826735 0.000000
-3.141593 -0.496041 0.000000
-2.810899 -0.496041 0.000000
-2.480205 -0.496041 0.000000
-2.149511 -0.496041 0.000000
-1.818817 -0.496041 0.000000
-1.488123 -0.496041 0.000000
-1.157429 -0.496041 0.000000
-0.826735 -0.496041 0.000000
-0.496041 -0.496041 0.000000
-0.165347 -0.496041 0.000000
0.165347 -0.496041 0.000000
0.496041 -0.496041 0.000000
0.826735 -0.496041 0.000000
1.157429 -0.496041 0.000000
1.488123 -0.496041 0.000000
1.818817 -0.496041 0.000000
2.149511 -0.496041 0.000000
2.480205 -0.496041 0.000000
2.810899 -0.496041 0.000000
3.141593 -0.496041 0.000000
-3.141593 -0.165347 0.000000
-2.810899 -0.165347 0.000000
-2.480205 -0.165347 0.000000
-2.149511 -0.165347 0.000000
-1.818817 -0.165347 0.000000
-1.488123 -0.165347 0.000000
-1.157429 -0.165347 0.000000
-0.826735 -0.165347 0.000000
-0.496041 -0.165347 0.000000
-0.165347 -0.165347 0.000000
0.165347 -0.165347 0.000000
0.496041 -0.165347 0.000000
0.826735 -0.165347 0.000000
1.157429 -0.165347 0.000000
1.488123 -0.165347 0.000000
1.818817 -0.165347 0.000000
2.149511 -0.165347 0.000000
2.480205 -0.165347 0.000000
2.810899 -0.165347 0.000000
3.141593 -0.165347 0.000000
-3.141593 0.165347 0.000000
-2.810899 0.165347 0.000000
-2.480205 0.165347 0.000000
-2.149511 0.165347 0.000000
-1.818817 0.165347 0.000000
-1.488123 0.165347 0.000000
-1.157429 0.165347 0.000000
-0.826735 0.165347 0.000000
-0.496041 0.165347 0.000000
-0.165347 0.165347 0.000000
0.165347 0.165347 0.000000
0.496041 0.165347 0.000000
0.826735 0.165347 0.000000
1.157429 0.165347 0.000000
1.488123 0.165347 0.000000
1.818817 0.165347 0.000000
2.149511 0.165347 0.000000
2.480205 0.165347 0.000000
2.810899 0.165347 0.000000
3.141593 0.165347 0.000000
-3.141593 0.496041 0.000000
-2.810899 0.496041 0.000000
-2.480205 0.496041 0.000000
-2.149511 0.496041 0.000000
-1.818817 0.496041 0.000000
-1.488123 0.496041 0.000000
-1.157429 0.496041 0.000000
-0.826735 0.496041 0.000000
-0.496041 0.496041 0.000000
-0.165347 0.496041 0.000000
0.165347 0.496041 0.000000
0.496041 0.496041 0.000000
0.826735 0.496041 0.000000
1.157429 0.496041 0.000000
1.488123 0.496041 0.000000
1.818817 0.496041 0.000000
2.149511 0.496041 0.000000
2.480205 0.496041 0.000000
2.810899 0.496041 0.000000
3.141593 0.496041 0.000000
-3.141593 0.826735 0.000000
-2.810899 0.826735 0.000000
-2.480205 0.826735 0.000000
-2.149511 0.826735 0.000000
-1.818817 0.826735 0.000000
-1.488123 0.826735 0.000000
-1.157429 0.826735 0.000000
-0.826735 0.826735 0.000000
-0.496041 0.826735 0.000000
-0.165347 0.826735 0.000000
0.165347 0.826735 0.000000
0.496041 0.826735 0.000000
0.826735 0.826735 0.000000
1.157429 0.826735 0.000000
1.488123 0.826735 0.000000
1.818817 0.826735 0.000000
2.149511 0.826735 0.000000
2.480205 0.826735 0.000000
2.810899 0.826735 0.000000
3.141593 0.826735 0.000000
-3.141593 1.157429 0.000000
-2.810899 1.157429 0.000000
-2.480205 1.157429 0.000000
-2.149511 1.157429 0.000000
-1.818817 1.157429 0.000000
-1.488123 1.157429 0.000000
-1.157429 1.157429 0.000000
-0.826735 1.157429 0.000000
-0.496041 1.157429 0.000000
-0.165347 1.157429 0.000000
0.165347 1.157429 0.000000
0.496041 1.157429 0.000000
0.826735 1.157429 0.000000
1.157429 1.157429 0.000000
1.488123 1.157429 0.000000
1.818817 1.157429 0.000000
2.149511 1.157429 0.000000
2.480205 1.157429 0.000000
2.810899 1.157429 0.000000
3.141593 1.157429 0.000000
-3.141593 1.488123 0.000000
-2.810899 1.488123 0.000000
-2.480205 1.488123 0.000000
-2.149511 1.488123 0.000000
-1.818817 1.488123 0.000000
-1.488123 1.488123 0.000000
-1.157429 1.488123 0.000000
-0.826735 1.488123 0.000000
-0.496041 1.488123 0.000000
-0.165347 1.488123 0.000000
0.165347 1.488123 0.000000
0.496041 1.488123 0.000000
0.826735 1.488123 0.000000
1.157429 1.488123 0.000000
1.488123 1.488123 0.000000
1.818817 1.488123 0.000000
2.149511 1.488123 0.000000
2.480205 1.488123 0.000000
2.810899 1.488123 0.000000
3.141593 1.488123 0.000000
-3.141593 1.818817 0.000000
-2.810899 1.818817 0.000000
-2.480205 1.818817 0.000000
-2.149511 1.818817 0.000000
-1.818817 1.818817 0.000000
-1.488123 1.818817 0.000000
-1.157429 1.818817 0.000000
-0.826735 1.818817 0.000000
-0.496041 1.818817 0.000000
-0.165347 1.818817 0.000000
0.165347 1.818817 0.000000
0.496041 1.818817 0.000000
0.826735 1.818817 0.000000
1.157429 1.818817 0.000000
1.488123 1.818817 0.000000
1.818817 1.818817 0.000000
2.149511 1.818817 0.000000
2.480205 1.818817 0.000000
2.810899 1.818817 0.000000
3.141593 1.818817 0.000000
-3.141593 2.149511 0.000000
-2.810899 2.149511 0.000000
-2.480205 2.149511 0.000000
-2.149511 2.149511 0.000000
-1.818817 2.149511 0.000000
-1.488123 2.149511 0.000000
-1.157429 2.149511 0.000000
-0.826735 2.149511 0.000000
-0.496041 2.149511 0.000000
-0.165347 2.149511 0.000000
0.165347 2.149511 0.000000
0.496041 2.149511 0.000000
0.826735 2.149511 0.000000
1.157429 2.149511 0.000000
1.488123 2.149511 0.000000
1.818817 2.149511 0.000000
2.149511 2.149511 0.000000
2.480205 2.149511 0.000000
2.810899 2.149511 0.000000
3.141593 2.149511 0.000000
-3.141593 2.480205 0.000000
-2.810899 2.480205 0.000000
-2.480205 2.480205 0.000000
-2.149511 2.480205 0.000000
-1.818817 2.480205 0.000000
-1.488123 2.480205 0.000000
-1.157429 2.480205 0.000000
-0.826735 2.480205 0.000000
-0.496041 2.480205 0.000000
-0.165347 2.480205 0.000000
0.165347 2.480205 0.000000
0.496041 2.480205 0.000000
0.826735 2.480205 0.000000
[...]
POINT_DATA 400
SCALARS solution_0 double
LOOKUP_TABLE defaul
0.169841
0.146681
0.094531
0.042146
0.008108
0.000911
0.022326
0.068149
0.125790
0.169846
0.169846
0.125790
0.068149
0.022326
0.000911
0.008108
0.042146
0.094531
0.146681
0.169841
0.162497
0.121911
0.066899
0.022140
0.000911
0.008164
0.042742
0.096570
0.150781
0.174596
0.149434
0.095196
0.042026
0.008019
0.000895
0.021759
0.065876
0.120532
0.161784
0.162497
0.142713
0.092748
0.041563
0.008015
0.000901
0.022037
0.066985
0.122707
0.163878
0.162378
0.119899
0.064973
0.021303
0.000870
0.007743
0.040256
0.090336
0.140474
0.163660
0.142713
0.115646
0.064018
0.021291
0.000878
0.007855
0.040943
0.091745
0.141478
0.161910
0.138151
0.088267
0.039101
0.007478
0.000835
0.020303
0.061391
0.112159
0.150690
0.152460
0.115646
0.086573
0.039096
0.007567
0.000851
0.020738
0.062570
0.113255
0.149198
0.146919
0.108863
0.059338
0.019540
0.000800
0.007121
0.036965
0.082704
0.128238
0.149680
0.131750
0.086573
0.059364
0.019856
0.000820
0.007326
0.037970
0.084235
0.128188
0.145294
0.124091
0.079814
0.035574
0.006829
0.000764
0.018555
0.055948
0.101788
0.136416
0.138628
0.106234
0.059364
0.036327
0.007054
0.000793
0.019262
0.057689
0.103281
0.134599
0.132146
0.098422
0.054014
0.017877
0.000734
0.006534
0.033860
0.075476
0.116552
0.135997
0.120486
0.079893
0.036327
0.018618
0.000770
0.006865
0.035410
0.077932
0.117472
0.132386
0.113293
0.073303
0.032851
0.006329
0.000709
0.017211
0.051769
0.093840
0.125439
0.127754
0.098550
0.055434
0.018618
0.006710
0.000754
0.018265
0.054423
0.096754
0.125325
0.122920
0.091900
0.050677
0.016834
0.000692
0.006170
0.031939
0.071035
0.109412
0.127611
0.113434
0.075585
0.034497
0.006710
0.000746
0.006641
0.034159
0.074858
0.112318
0.126287
0.108232
0.070256
0.031582
0.006097
0.000684
0.016604
0.049909
0.090350
0.120668
0.123014
0.095128
0.053633
0.018035
0.000746
0.000746
0.018035
0.053633
0.095128
0.123014
0.120668
0.090350
0.049909
0.016604
0.000684
0.006097
0.031582
0.070256
0.108232
0.126287
0.112318
0.074858
0.034159
0.006641
0.000746
0.006710
0.034497
0.075585
0.113434
0.127611
0.109412
0.071035
0.031939
0.006170
0.000692
0.016834
0.050677
0.091900
0.122920
0.125325
0.096754
0.054423
0.018265
0.000754
0.006710
0.018618
0.055434
0.098550
0.127754
0.125439
0.093840
0.051769
0.017211
0.000709
0.006329
0.032851
0.073303
0.113293
0.132386
0.117472
0.077932
0.035410
0.006865
0.000770
0.018618
0.036327
0.079893
0.120486
0.135997
0.116552
0.075476
0.033860
0.006534
0.000734
0.017877
0.054014
0.098422
0.132146
0.134599
0.103281
0.057689
0.019262
0.000793
0.007054
0.036327
0.059364
0.106234
0.138628
0.136416
0.101788
0.055948
0.018555
0.000764
0.006829
0.035574
0.079814
0.124091
0.145294
0.128188
0.084235
0.037970
0.007326
0.000820
0.019856
0.059364
0.086573
0.131750
0.149680
0.128238
0.082704
0.036965
0.007121
0.000800
0.019540
0.059338
0.108863
0.146919
0.149198
0.113255
0.062570
0.020738
0.000851
0.007567
0.039096
0.086573
0.115646
0.152460
0.150690
0.112159
0.061391
0.020303
0.000835
0.007478
0.039101
0.088267
0.138151
0.161910
0.141478
0.091745
0.040943
0.007855
0.000878
0.021291
0.064018
0.115646
0.142713
0.163660
0.140474
0.090336
0.040256
0.007743
0.000870
0.021303
0.064973
0.119899
0.162378
0.163878
0.122707
0.066985
0.022037
0.000901
0.008015
0.041563
0.092748
0.142713
0.162497
0.161784
0.120532
0.065876
0.021759
0.000895
0.008019
0.042026
0.095196
0.149434
0.174596
0.150781
0.096570
0.042742
0.008164
0.000911
0.022140
0.066899
0.121911
0.162497
0.169841
0.146681
0.094531
0.042146
0.008108
0.000911
0.022326
0.068149
0.125790
0.169846
0.169846
0.125790
0.068149
0.022326
0.000911
0.008108
0.042146
0.094531
0.146681
0.169841
SCALARS solution_1 double
LOOKUP_TABLE defaul
0.557757
0.563859
0.575182
0.583851
0.588251
0.588759
0.585392
0.577447
0.564657
0.552051
0.552051
0.564657
0.577447
0.585392
0.588759
0.588251
0.583851
0.575182
0.563859
0.557757
0.558969
0.568796
0.579048
0.585318
0.587489
0.585904
0.580248
0.569865
0.556525
0.549862
0.558038
0.571648
0.581625
0.586745
0.587847
0.585315
0.578880
0.568700
0.558983
0.558969
0.561690
0.571931
0.579688
0.583396
0.583428
0.579877
0.572273
0.560838
0.550769
0.552437
0.564221
0.575369
0.581982
0.584486
0.583563
0.579265
0.571383
0.561445
0.556193
0.561690
0.564195
0.572645
0.577634
0.579039
0.577212
0.572036
0.563333
0.553249
0.549572
0.557120
0.568029
0.575679
0.579312
0.579652
0.577060
0.571440
0.563154
0.555686
0.556031
0.564195
0.565447
0.571393
0.573967
0.573511
0.570214
0.563973
0.555520
0.549269
0.551863
0.560961
0.569061
0.573587
0.574914
0.573590
0.569742
0.563425
0.556106
0.552764
0.557396
0.565447
0.565396
0.569046
0.569769
0.567923
0.563592
0.557018
0.550335
0.548947
0.555026
0.562879
0.568140
0.570336
0.570012
0.567481
0.562808
0.556551
0.551507
0.552422
0.558903
0.565396
0.564518
0.566415
0.565827
0.562999
0.558061
0.551945
0.548104
0.550639
0.557382
0.563205
0.566305
0.566927
0.565477
0.562109
0.557033
0.551609
0.549554
0.553463
0.559853
0.564518
0.563371
0.564057
0.562570
0.559059
0.553883
0.548903
0.548075
0.552683
0.558637
0.562698
0.564367
0.563982
0.561772
0.557837
0.552736
0.548774
0.549568
0.554819
0.560230
0.563371
0.562388
0.562262
0.560125
0.556091
0.550966
0.547557
0.549151
0.554345
0.559204
0.562038
0.562824
0.561792
0.559025
0.554674
0.549871
0.547727
0.550626
0.556031
0.560339
0.562388
0.561835
0.561113
0.558392
0.553873
0.549053
0.547419
0.550629
0.555686
0.559636
0.561688
0.561914
0.560394
0.557102
0.552386
0.548183
0.547949
0.552111
0.557132
0.560536
0.561835
0.561835
0.560536
0.557132
0.552111
0.547949
0.548183
0.552386
0.557102
0.560394
0.561914
0.561688
0.559636
0.555686
0.550629
0.547419
0.549053
0.553873
0.558392
0.561113
0.561835
0.562388
0.560339
0.556031
0.550626
0.547727
0.549871
0.554674
0.559025
0.561792
0.562824
0.562038
0.559204
0.554345
0.549151
0.547557
0.550966
0.556091
0.560125
0.562262
0.562388
0.563371
0.560230
0.554819
0.549568
0.548774
0.552736
0.557837
0.561772
0.563982
0.564367
0.562698
0.558637
0.552683
0.548075
0.548903
0.553883
0.559059
0.562570
0.564057
0.563371
0.564518
0.559853
0.553463
0.549554
0.551609
0.557033
0.562109
0.565477
0.566927
0.566305
0.563205
0.557382
0.550639
0.548104
0.551945
0.558061
0.562999
0.565827
0.566415
0.564518
0.565396
0.558903
0.552422
0.551507
0.556551
0.562808
0.567481
0.570012
0.570336
0.568140
0.562879
0.555026
0.548947
0.550335
0.557018
0.563592
0.567923
0.569769
0.569046
0.565396
0.565447
0.557396
0.552764
0.556106
0.563425
0.569742
0.573590
0.574914
0.573587
0.569061
0.560961
0.551863
0.549269
0.555520
0.563973
0.570214
0.573511
0.573967
0.571393
0.565447
0.564195
0.556031
0.555686
0.563154
0.571440
0.577060
0.579652
0.579312
0.575679
0.568029
0.557120
0.549572
0.553249
0.563333
0.572036
0.577212
0.579039
0.577634
0.572645
0.564195
0.561690
0.556193
0.561445
0.571383
0.579265
0.583563
0.584486
0.581982
0.575369
0.564221
0.552437
0.550769
0.560838
0.572273
0.579877
0.583428
0.583396
0.579688
0.571931
0.561690
0.558969
0.558983
0.568700
0.578880
0.585315
0.587847
0.586745
0.581625
0.571648
0.558038
0.549862
0.556525
0.569865
0.580248
0.585904
0.587489
0.585318
0.579048
0.568796
0.558969
0.557757
0.563859
0.575182
0.583851
0.588251
0.588759
0.585392
0.577447
0.564657
0.552051
0.552051
0.564657
0.577447
0.585392
0.588759
0.588251
0.583851
0.575182
0.563859
0.557757
SCALARS solution_2 double
LOOKUP_TABLE defaul
1.286402
1.322853
1.413326
1.514395
1.582347
1.590099
1.533121
1.429816
1.318531
1.245958
1.245958
1.318531
1.429816
1.533121
1.590099
1.582347
1.514395
1.413326
1.322853
1.286402
1.295048
1.358573
1.458016
1.546844
1.587118
1.562155
1.479381
1.368413
1.273760
1.238348
1.280480
1.381208
1.496941
1.582604
1.608676
1.568335
1.477644
1.372915
1.300380
1.295048
1.320502
1.404211
1.503498
1.573020
1.582701
1.527201
1.426340
1.319429
1.252717
1.259121
1.338087
1.455628
1.564569
1.625063
1.617591
1.546913
1.440372
1.341498
1.294386
1.320502
1.361422
1.457077
1.547877
1.592559
1.570500
1.488995
1.380116
1.289506
1.259314
1.307018
1.413855
1.536805
1.629650
1.659608
1.617707
1.520879
1.407214
1.323838
1.307034
1.361422
1.415808
1.515005
1.589844
1.605209
1.552084
1.451853
1.346864
1.283856
1.294694
1.378680
1.503076
1.621186
1.690114
1.685180
1.609401
1.493038
1.382692
1.323591
1.338799
1.415808
1.480900
1.575279
1.626935
1.609541
1.528835
1.420248
1.331868
1.305317
1.357190
1.469663
1.601376
1.705020
1.742228
1.698571
1.592094
1.466075
1.370572
1.342526
1.388313
1.480900
1.552449
1.633049
1.654280
1.603051
1.502404
1.398427
1.338690
1.353780
1.442793
1.574590
1.703026
1.781459
1.778371
1.694494
1.565288
1.442734
1.373300
1.380099
1.452347
1.552449
1.623423
1.680071
1.664949
1.583599
1.475141
1.389818
1.368354
1.425954
1.545203
1.685620
1.797923
1.838061
1.787573
1.668230
1.530062
1.425746
1.391440
1.433252
1.525431
1.623423
1.682977
1.705372
1.652708
1.551327
1.450075
1.396279
1.418646
1.515144
1.654662
1.789644
1.869142
1.858149
1.760722
1.619519
1.489913
1.417407
1.423264
1.496268
1.599061
1.682977
1.717792
1.699615
1.616160
1.509671
1.430448
1.417429
1.483755
1.610733
1.756113
1.866795
1.896011
1.829709
1.698018
1.554490
1.450336
1.419018
1.464684
1.560713
1.661422
1.717792
1.717792
1.661422
1.560713
1.464684
1.419018
1.450336
1.554490
1.698018
1.829709
1.896011
1.866795
1.756113
1.610733
1.483755
1.417429
1.430448
1.509671
1.616160
1.699615
1.717792
1.682977
1.599061
1.496268
1.423264
1.417407
1.489913
1.619519
1.760722
1.858149
1.869142
1.789644
1.654662
1.515144
1.418646
1.396279
1.450075
1.551327
1.652708
1.705372
1.682977
1.623423
1.525431
1.433252
1.391440
1.425746
1.530062
1.668230
1.787573
1.838061
1.797923
1.685620
1.545203
1.425954
1.368354
1.389818
1.475141
1.583599
1.664949
1.680071
1.623423
1.552449
1.452347
1.380099
1.373300
1.442734
1.565288
1.694494
1.778371
1.781459
1.703026
1.574590
1.442793
1.353780
1.338690
1.398427
1.502404
1.603051
1.654280
1.633049
1.552449
1.480900
1.388313
1.342526
1.370572
1.466075
1.592094
1.698571
1.742228
1.705020
1.601376
1.469663
1.357190
1.305317
1.331868
1.420248
1.528835
1.609541
1.626935
1.575279
1.480900
1.415808
1.338799
1.323591
1.382692
1.493038
1.609401
1.685180
1.690114
1.621186
1.503076
1.378680
1.294694
1.283856
1.346864
1.451853
1.552084
1.605209
1.589844
1.515005
1.415808
1.361422
1.307034
1.323838
1.407214
1.520879
1.617707
1.659608
1.629650
1.536805
1.413855
1.307018
1.259314
1.289506
1.380116
1.488995
1.570500
1.592559
1.547877
1.457077
1.361422
1.320502
1.294386
1.341498
1.440372
1.546913
1.617591
1.625063
1.564569
1.455628
1.338087
1.259121
1.252717
1.319429
1.426340
1.527201
1.582701
1.573020
1.503498
1.404211
1.320502
1.295048
1.300380
1.372915
1.477644
1.568335
1.608676
1.582604
1.496941
1.381208
1.280480
1.238348
1.273760
1.368413
1.479381
1.562155
1.587118
1.546844
1.458016
1.358573
1.295048
1.286402
1.322853
1.413326
1.514395
1.582347
1.590099
1.533121
1.429816
1.318531
1.245958
1.245958
1.318531
1.429816
1.533121
1.590099
1.582347
1.514395
1.413326
1.322853
1.286402
SCALARS solution_3 double
LOOKUP_TABLE defaul
2.698937
2.704962
2.721892
2.744779
2.762978
2.764895
2.748750
2.724425
2.703451
2.692034
2.692034
2.703451
2.724425
2.748750
2.764895
2.762978
2.744779
2.721892
2.704962
2.698937
2.734470
2.739010
2.756120
2.780790
2.801064
2.804115
2.788141
2.763250
2.740862
2.727445
2.725710
2.736708
2.759200
2.786355
2.804971
2.804145
2.785797
2.761739
2.742769
2.734470
2.841527
2.847088
2.867312
2.895771
2.917747
2.919132
2.899758
2.871728
2.847031
2.832309
2.830838
2.844327
2.871282
2.902768
2.922882
2.920279
2.898770
2.871799
2.850707
2.841527
3.021073
3.030452
3.055468
3.087111
3.107705
3.103656
3.078888
3.048083
3.022952
3.009513
3.011024
3.029080
3.060727
3.094072
3.111418
3.103408
3.077606
3.048915
3.028176
3.021073
3.272794
3.286779
3.314830
3.345654
3.360499
3.349414
3.321736
3.292601
3.271279
3.262150
3.267746
3.288702
3.320178
3.348646
3.357842
3.343495
3.316716
3.291101
3.274983
3.272794
3.587061
3.598887
3.619673
3.640557
3.647515
3.636669
3.618080
3.600996
3.589700
3.586244
3.592008
3.607017
3.627162
3.642122
3.641578
3.627284
3.609023
3.594004
3.585912
3.587061
3.802062
3.777783
3.758835
3.754537
3.765813
3.785682
3.806026
3.821294
3.828354
3.825618
3.813578
3.797051
3.785397
3.786291
3.798974
3.815894
3.828536
3.831115
3.821727
3.802062
3.771347
3.743007
3.728193
3.735230
3.757418
3.782178
3.800602
3.808731
3.805352
3.790869
3.769008
3.749740
3.745525
3.759397
3.782428
3.803238
3.814506
3.812979
3.797804
3.771347
3.725117
3.705787
3.708260
3.729051
3.754675
3.774358
3.783249
3.779976
3.764922
3.741405
3.718800
3.710763
3.723085
3.747464
3.771289
3.786272
3.788758
3.777570
3.753986
3.725117
3.694357
3.694718
3.714537
3.740462
3.760560
3.769430
3.765733
3.750084
3.725847
3.701950
3.691961
3.702942
3.727291
3.751837
3.767883
3.771815
3.762645
3.741525
3.714374
3.694357
3.694357
3.714374
3.741525
3.762645
3.771815
3.767883
3.751837
3.727291
3.702942
3.691961
3.701950
3.725847
3.750084
3.765733
3.769430
3.760560
3.740462
3.714537
3.694718
3.694357
3.725117
3.753986
3.777570
3.788758
3.786272
3.771289
3.747464
3.723085
3.710763
3.718800
3.741405
3.764922
3.779976
3.783249
3.774358
3.754675
3.729051
3.708260
3.705787
3.725117
3.771347
3.797804
3.812979
3.814506
3.803238
3.782428
3.759397
3.745525
3.749740
3.769008
3.790869
3.805352
3.808731
3.800602
3.782178
3.757418
3.735230
3.728193
3.743007
3.771347
3.802062
3.821727
3.831115
3.828536
3.815894
3.798974
3.786291
3.785397
3.797051
3.813578
3.825618
3.828354
3.821294
3.806026
3.785682
3.765813
3.754537
3.758835
3.777783
3.802062
3.587061
3.585912
3.594004
3.609023
3.627284
3.641578
3.642122
3.627162
3.607017
3.592008
3.586244
3.589700
3.600996
3.618080
3.636669
3.647515
3.640557
3.619673
3.598887
3.587061
3.272794
3.274983
3.291101
3.316716
3.343495
3.357842
3.348646
3.320178
3.288702
3.267746
3.262150
3.271279
3.292601
3.321736
3.349414
3.360499
3.345654
3.314830
3.286779
3.272794
3.021073
3.028176
3.048915
3.077606
3.103408
3.111418
3.094072
3.060727
3.029080
3.011024
3.009513
3.022952
3.048083
3.078888
3.103656
3.107705
3.087111
3.055468
3.030452
3.021073
2.841527
2.850707
2.871799
2.898770
2.920279
2.922882
2.902768
2.871282
2.844327
2.830838
2.832309
2.847031
2.871728
2.899758
2.919132
2.917747
2.895771
2.867312
2.847088
2.841527
2.734470
2.742769
2.761739
2.785797
2.804145
2.804971
2.786355
2.759200
2.736708
2.725710
2.727445
2.740862
2.763250
2.788141
2.804115
2.801064
2.780790
2.756120
2.739010
2.734470
2.698937
2.704962
2.721892
2.744779
2.762978
2.764895
2.748750
2.724425
2.703451
2.692034
2.692034
2.703451
2.724425
2.748750
2.764895
2.762978
2.744779
2.721892
2.704962
2.698937
