# vtk DataFile Version 2.0
this shit
ASCII
DATASET POLYDATA
POINTS 2113 double
0.000000 0.000000 0.000000
1.000000 0.000000 0.000000
1.000000 1.000000 0.000000
0.000000 1.000000 0.000000
0.031250 0.000000 0.000000
0.062500 0.000000 0.000000
0.093750 0.000000 0.000000
0.125000 0.000000 0.000000
0.156250 0.000000 0.000000
0.187500 0.000000 0.000000
0.218750 0.000000 0.000000
0.250000 0.000000 0.000000
0.281250 0.000000 0.000000
0.312500 0.000000 0.000000
0.343750 0.000000 0.000000
0.375000 0.000000 0.000000
0.406250 0.000000 0.000000
0.437500 0.000000 0.000000
0.468750 0.000000 0.000000
0.500000 0.000000 0.000000
0.531250 0.000000 0.000000
0.562500 0.000000 0.000000
0.593750 0.000000 0.000000
0.625000 0.000000 0.000000
0.656250 0.000000 0.000000
0.687500 0.000000 0.000000
0.718750 0.000000 0.000000
0.750000 0.000000 0.000000
0.781250 0.000000 0.000000
0.812500 0.000000 0.000000
0.843750 0.000000 0.000000
0.875000 0.000000 0.000000
0.906250 0.000000 0.000000
0.937500 0.000000 0.000000
0.968750 0.000000 0.000000
1.000000 0.031250 0.000000
1.000000 0.062500 0.000000
1.000000 0.093750 0.000000
1.000000 0.125000 0.000000
1.000000 0.156250 0.000000
1.000000 0.187500 0.000000
1.000000 0.218750 0.000000
1.000000 0.250000 0.000000
1.000000 0.281250 0.000000
1.000000 0.312500 0.000000
1.000000 0.343750 0.000000
1.000000 0.375000 0.000000
1.000000 0.406250 0.000000
1.000000 0.437500 0.000000
1.000000 0.468750 0.000000
1.000000 0.500000 0.000000
1.000000 0.531250 0.000000
1.000000 0.562500 0.000000
1.000000 0.593750 0.000000
1.000000 0.625000 0.000000
1.000000 0.656250 0.000000
1.000000 0.687500 0.000000
1.000000 0.718750 0.000000
1.000000 0.750000 0.000000
1.000000 0.781250 0.000000
1.000000 0.812500 0.000000
1.000000 0.843750 0.000000
1.000000 0.875000 0.000000
1.000000 0.906250 0.000000
1.000000 0.937500 0.000000
1.000000 0.968750 0.000000
0.968750 1.000000 0.000000
0.937500 1.000000 0.000000
0.906250 1.000000 0.000000
0.875000 1.000000 0.000000
0.843750 1.000000 0.000000
0.812500 1.000000 0.000000
0.781250 1.000000 0.000000
0.750000 1.000000 0.000000
0.718750 1.000000 0.000000
0.687500 1.000000 0.000000
0.656250 1.000000 0.000000
0.625000 1.000000 0.000000
0.593750 1.000000 0.000000
0.562500 1.000000 0.000000
0.531250 1.000000 0.000000
0.500000 1.000000 0.000000
0.468750 1.000000 0.000000
0.437500 1.000000 0.000000
0.406250 1.000000 0.000000
0.375000 1.000000 0.000000
0.343750 1.000000 0.000000
0.312500 1.000000 0.000000
0.281250 1.000000 0.000000
0.250000 1.000000 0.000000
0.218750 1.000000 0.000000
0.187500 1.000000 0.000000
0.156250 1.000000 0.000000
0.125000 1.000000 0.000000
0.093750 1.000000 0.000000
0.062500 1.000000 0.000000
0.031250 1.000000 0.000000
0.000000 0.968750 0.000000
0.000000 0.937500 0.000000
0.000000 0.906250 0.000000
0.000000 0.875000 0.000000
0.000000 0.843750 0.000000
0.000000 0.812500 0.000000
0.000000 0.781250 0.000000
0.000000 0.750000 0.000000
0.000000 0.718750 0.000000
0.000000 0.687500 0.000000
0.000000 0.656250 0.000000
0.000000 0.625000 0.000000
0.000000 0.593750 0.000000
0.000000 0.562500 0.000000
0.000000 0.531250 0.000000
0.000000 0.500000 0.000000
0.000000 0.468750 0.000000
0.000000 0.437500 0.000000
0.000000 0.406250 0.000000
0.000000 0.375000 0.000000
0.000000 0.343750 0.000000
0.000000 0.312500 0.000000
0.000000 0.281250 0.000000
0.000000 0.250000 0.000000
0.000000 0.218750 0.000000
0.000000 0.187500 0.000000
0.000000 0.156250 0.000000
0.000000 0.125000 0.000000
0.000000 0.093750 0.000000
0.000000 0.062500 0.000000
0.000000 0.031250 0.000000
0.499298 0.501117 0.000000
0.664365 0.664707 0.000000
0.664176 0.336105 0.000000
0.335092 0.336483 0.000000
0.335463 0.665260 0.000000
0.831678 0.396886 0.000000
0.807825 0.192274 0.000000
0.831679 0.603404 0.000000
0.684782 0.500415 0.000000
0.807936 0.807989 0.000000
0.557684 0.558619 0.000000
0.557411 0.442993 0.000000
0.168145 0.603958 0.000000
0.192093 0.808299 0.000000
0.168063 0.397414 0.000000
0.314556 0.501182 0.000000
0.191894 0.192465 0.000000
0.441419 0.443342 0.000000
0.441665 0.559026 0.000000
0.500006 0.685543 0.000000
0.603378 0.831921 0.000000
0.396811 0.832048 0.000000
0.499553 0.315914 0.000000
0.396477 0.168767 0.000000
0.603100 0.168721 0.000000
0.906605 0.215756 0.000000
0.895458 0.104578 0.000000
0.912929 0.329060 0.000000
0.823060 0.293971 0.000000
0.915873 0.443039 0.000000
0.747634 0.361353 0.000000
0.731277 0.268908 0.000000
0.915868 0.557137 0.000000
0.834499 0.500148 0.000000
0.755737 0.546542 0.000000
0.755721 0.453974 0.000000
0.747690 0.639140 0.000000
0.679663 0.582247 0.000000
0.679583 0.418570 0.000000
0.912905 0.671059 0.000000
0.906627 0.784359 0.000000
0.823083 0.706283 0.000000
0.895557 0.895571 0.000000
0.731433 0.731590 0.000000
0.618769 0.465449 0.000000
0.606057 0.394288 0.000000
0.618846 0.535757 0.000000
0.565570 0.500791 0.000000
0.606304 0.606916 0.000000
0.520132 0.521457 0.000000
0.519929 0.480526 0.000000
0.093336 0.784596 0.000000
0.104454 0.895699 0.000000
0.087050 0.671315 0.000000
0.176822 0.706753 0.000000
0.084077 0.557432 0.000000
0.252056 0.639801 0.000000
0.268542 0.732056 0.000000
0.084049 0.443365 0.000000
0.165284 0.500749 0.000000
0.243790 0.454665 0.000000
0.243864 0.547320 0.000000
0.251856 0.361890 0.000000
0.319672 0.419193 0.000000
0.319871 0.583001 0.000000
0.086986 0.329358 0.000000
0.093270 0.215928 0.000000
0.176671 0.294367 0.000000
0.104383 0.104591 0.000000
0.268235 0.269219 0.000000
0.380441 0.536430 0.000000
0.393326 0.607434 0.000000
0.380329 0.466065 0.000000
0.433420 0.501292 0.000000
0.392990 0.394690 0.000000
0.478734 0.480717 0.000000
0.478864 0.521691 0.000000
0.499706 0.566824 0.000000
0.535101 0.619736 0.000000
0.464652 0.619914 0.000000
0.581904 0.680226 0.000000
0.418059 0.680526 0.000000
0.639006 0.748020 0.000000
0.546367 0.756176 0.000000
0.500076 0.834788 0.000000
0.453742 0.756287 0.000000
0.557131 0.915992 0.000000
0.443021 0.916016 0.000000
0.361083 0.748332 0.000000
0.706256 0.823238 0.000000
0.784369 0.906690 0.000000
0.671060 0.912999 0.000000
0.293884 0.823485 0.000000
0.329082 0.913088 0.000000
0.215723 0.906807 0.000000
0.499345 0.435207 0.000000
0.464216 0.381988 0.000000
0.534666 0.381873 0.000000
0.417595 0.321123 0.000000
0.581525 0.320956 0.000000
0.360658 0.252941 0.000000
0.453360 0.244906 0.000000
0.499814 0.165972 0.000000
0.546030 0.244856 0.000000
0.442824 0.084375 0.000000
0.556948 0.084373 0.000000
0.638713 0.252775 0.000000
0.293566 0.177342 0.000000
0.215555 0.093561 0.000000
0.328875 0.087318 0.000000
0.706035 0.177217 0.000000
0.670894 0.087284 0.000000
0.784239 0.093522 0.000000
0.948985 0.113202 0.000000
0.944739 0.055276 0.000000
0.951912 0.172109 0.000000
0.901817 0.159721 0.000000
0.954081 0.231430 0.000000
0.857757 0.202798 0.000000
0.850070 0.149995 0.000000
0.955696 0.290964 0.000000
0.910244 0.272268 0.000000
0.868303 0.310198 0.000000
0.863740 0.256296 0.000000
0.871612 0.364347 0.000000
0.828123 0.345349 0.000000
0.816360 0.242881 0.000000
0.956841 0.350642 0.000000
0.957579 0.410395 0.000000
0.914781 0.386012 0.000000
0.957942 0.470173 0.000000
0.873778 0.418615 0.000000
0.777335 0.280252 0.000000
0.768305 0.231834 0.000000
0.784392 0.328958 0.000000
0.740523 0.315078 0.000000
0.789607 0.377817 0.000000
0.705810 0.347460 0.000000
0.696592 0.303644 0.000000
0.957942 0.529950 0.000000
0.916233 0.500092 0.000000
0.874851 0.527278 0.000000
0.874855 0.472939 0.000000
0.873772 0.581607 0.000000
0.833796 0.551789 0.000000
0.833795 0.448501 0.000000
0.793075 0.573634 0.000000
0.794791 0.524689 0.000000
0.756738 0.500270 0.000000
0.794785 0.475722 0.000000
0.719642 0.522125 0.000000
0.719630 0.478538 0.000000
0.793063 0.426750 0.000000
0.789630 0.622564 0.000000
0.752723 0.592832 0.000000
0.712781 0.609413 0.000000
0.717355 0.565737 0.000000
0.705919 0.653178 0.000000
0.673271 0.623369 0.000000
0.683506 0.541288 0.000000
0.752691 0.407661 0.000000
0.717317 0.434910 0.000000
0.712711 0.391223 0.000000
0.683468 0.459540 0.000000
0.673145 0.377438 0.000000
0.957575 0.589710 0.000000
0.956827 0.649426 0.000000
0.914766 0.614142 0.000000
0.955677 0.709079 0.000000
0.871598 0.635862 0.000000
0.954086 0.768629 0.000000
0.910229 0.727830 0.000000
0.863751 0.743868 0.000000
0.868292 0.689978 0.000000
0.857809 0.797377 0.000000
0.816415 0.757364 0.000000
0.828128 0.654927 0.000000
0.951948 0.827976 0.000000
0.949051 0.886899 0.000000
0.901875 0.840412 0.000000
0.944813 0.944819 0.000000
0.850177 0.850207 0.000000
0.784434 0.671414 0.000000
0.777413 0.720107 0.000000
0.740616 0.685412 0.000000
0.768440 0.768535 0.000000
0.696769 0.697010 0.000000
0.642513 0.405000 0.000000
0.633989 0.366328 0.000000
0.648253 0.443350 0.000000
0.613956 0.430076 0.000000
0.651158 0.481480 0.000000
0.587561 0.452529 0.000000
0.580484 0.419886 0.000000
0.651187 0.519536 0.000000
0.620419 0.500596 0.000000
0.591247 0.516691 0.000000
0.591192 0.484695 0.000000
0.587717 0.548873 0.000000
0.563605 0.529455 0.000000
0.563465 0.472135 0.000000
0.648336 0.557668 0.000000
0.642656 0.596007 0.000000
0.614110 0.571133 0.000000
0.634205 0.634671 0.000000
0.580748 0.581520 0.000000
0.541840 0.488498 0.000000
0.537097 0.463350 0.000000
0.541925 0.513280 0.000000
0.522909 0.500971 0.000000
0.537353 0.538471 0.000000
0.506744 0.508318 0.000000
0.506641 0.493807 0.000000
0.050920 0.887007 0.000000
0.055191 0.944866 0.000000
0.048028 0.828093 0.000000
0.098096 0.840617 0.000000
0.045894 0.768752 0.000000
0.142165 0.797684 0.000000
0.149849 0.850421 0.000000
0.044303 0.709201 0.000000
0.089723 0.728091 0.000000
0.131627 0.690367 0.000000
0.136191 0.744229 0.000000
0.128306 0.636264 0.000000
0.171729 0.655439 0.000000
0.183544 0.757774 0.000000
0.043160 0.649541 0.000000
0.042409 0.589830 0.000000
0.085186 0.614408 0.000000
0.042035 0.530089 0.000000
0.126121 0.582042 0.000000
0.222507 0.720605 0.000000
0.231577 0.768926 0.000000
0.215404 0.671981 0.000000
0.259234 0.685990 0.000000
0.210137 0.623193 0.000000
0.293845 0.653818 0.000000
0.303142 0.697527 0.000000
[...]
POINT_DATA 2113
SCALARS solution_0 double
LOOKUP_TABLE defaul
0.000000
0.000000
0.000000
0.000000
0.000000
0.000000
0.000000
0.000000
0.000000
0.000000
0.000000
0.000000
0.000000
0.000000
0.000000
0.000000
0.000000
0.000000
0.000000
0.000000
0.000000
0.000000
0.000000
0.000000
0.000000
0.000000
0.000000
0.000000
0.000000
0.000000
0.000000
0.000000
0.000000
0.000000
0.000000
0.000000
0.000000
0.000000
0.000000
0.000000
0.000000
0.000000
0.000000
0.000000
0.000000
0.000000
0.000000
0.000000
0.000000
0.000000
0.000000
0.000000
0.000000
0.000000
0.000000
0.000000
0.000000
0.000000
0.000000
0.000000
0.000000
0.000000
0.000000
0.000000
0.000000
0.000000
0.000000
0.000000
0.000000
0.000000
0.000000
0.000000
0.000000
0.000000
0.000000
0.000000
0.000000
0.000000
0.000000
0.000000
0.000000
0.000000
0.000000
0.000000
0.000000
0.000000
0.000000
0.000000
0.000000
0.000000
0.000000
0.000000
0.000000
0.000000
0.000000
0.000000
0.000000
0.000000
0.000000
0.000000
0.000000
0.000000
0.000000
0.000000
0.000000
0.000000
0.000000
0.000000
0.000000
0.000000
0.000000
0.000000
0.000000
0.000000
0.000000
0.000000
0.000000
0.000000
0.000000
0.000000
0.000000
0.000000
0.000000
0.000000
0.000000
0.000000
0.000000
0.000000
-1.955020
-1.504538
-1.506699
-1.507044
-1.504307
-0.971717
-0.711405
-0.957345
-1.646648
-0.710099
-1.893456
-1.894748
-0.970939
-0.709501
-0.958120
-1.647189
-0.711056
-1.894985
-1.893481
-1.644996
-0.970163
-0.955980
-1.648051
-0.972300
-0.958743
-0.428403
-0.282515
-0.497772
-0.888267
-0.519537
-1.301157
-1.145871
-0.510751
-0.989715
-1.360583
-1.365325
-1.291836
-1.612124
-1.615925
-0.477395
-0.412106
-0.872118
-0.282095
-1.143941
-1.815908
-1.756508
-1.814763
-1.915068
-1.754549
-1.946982
-1.947459
-0.427562
-0.281713
-0.496938
-0.886689
-0.519399
-1.299576
-1.143421
-0.511167
-0.989861
-1.361445
-1.365175
-1.293427
-1.613898
-1.614918
-0.477922
-0.412561
-0.873139
-0.282381
-1.145765
-1.815530
-1.754556
-1.815940
-1.915264
-1.756892
-1.947525
-1.946978
-1.914330
-1.814426
-1.813901
-1.613872
-1.611084
-1.299109
-1.363310
-0.988061
-1.358836
-0.518830
-0.510009
-1.290691
-0.886652
-0.427698
-0.496826
-0.871079
-0.476696
-0.411423
-1.915923
-1.816945
-1.816344
-1.616835
-1.613995
-1.301695
-1.366280
-0.990616
-1.361964
-0.520213
-0.511694
-1.293681
-0.888240
-0.428310
-0.497829
-0.873684
-0.478484
-0.412993
-0.166472
-0.108433
-0.204790
-0.367683
-0.230890
-0.587931
-0.489575
-0.247897
-0.470494
-0.709692
-0.659767
-0.741616
-0.939716
-0.813511
-0.257719
-0.262045
-0.513289
-0.262194
-0.759012
-1.032852
-0.933902
-1.104551
-1.236676
-1.152831
-1.418085
-1.338760
-0.259050
-0.518313
-0.759876
-0.764516
-0.745953
-0.979547
-0.987581
-1.172148
-1.189553
-1.370753
-1.192866
-1.519066
-1.520789
-1.181307
-1.140082
-1.334717
-1.466495
-1.501247
-1.412678
-1.568742
-1.637520
-1.342956
-1.505944
-1.472659
-1.639812
-1.572625
-0.253069
-0.244366
-0.497228
-0.232548
-0.722703
-0.216669
-0.449914
-0.641929
-0.688917
-0.577394
-0.803105
-0.922282
-0.194786
-0.162621
-0.359147
-0.108314
-0.488732
-1.091664
-1.023808
-1.229458
-0.932237
-1.336682
-1.698191
-1.646293
-1.729994
-1.794843
-1.744614
-1.864485
-1.838428
-1.743788
-1.822218
-1.875856
-1.876299
-1.863245
-1.909767
-1.910469
-1.727801
-1.695452
-1.792948
-1.644166
-1.836746
-1.937241
-1.929464
-1.936941
-1.949914
-1.928605
-1.953910
-1.954080
-0.166270
-0.108113
-0.204507
-0.366900
-0.230455
-0.586572
-0.488199
-0.247334
-0.469607
-0.708543
-0.658464
-0.740745
-0.938490
-0.811710
-0.257265
-0.261875
-0.512748
-0.262292
-0.758530
-1.030816
-0.931629
-1.102892
-1.234588
-1.151680
-1.416094
-1.336285
-0.259320
-0.518539
-0.760182
-0.764452
-0.746505
-0.980067
-0.987275
-1.172981
-1.190026
-1.371150
-1.192876
-1.519851
-1.520981
-1.180785
-1.141206
-1.335988
-1.468264
-1.502568
-1.414760
-1.570961
-1.638722
-1.342083
-1.505418
-1.471334
-1.639613
-1.570847
-0.253408
-0.244691
-0.497737
-0.232834
-0.723388
-0.216923
-0.450414
-0.642657
-0.689650
-0.578071
-0.804131
-0.923222
-0.195005
-0.162792
-0.359534
-0.108409
-0.489311
-1.092982
-1.025210
-1.231231
-0.933622
-1.338917
-1.696695
-1.644070
-1.729306
-1.793655
-1.744737
-1.863615
-1.836781
-1.744673
-1.822642
-1.876546
-1.876220
-1.864642
-1.910661
-1.909934
-1.729362
-1.697579
-1.794778
-1.646694
-1.838739
-1.937024
-1.928606
-1.937356
-1.949952
-1.929619
-1.954095
-1.953904
-1.949644
-1.936625
-1.936596
-1.909453
-1.909364
-1.863070
-1.875159
-1.820995
-1.875025
-1.743070
-1.742512
-1.862822
-1.793089
-1.696177
-1.728194
-1.570465
-1.637944
-1.792496
-1.726879
-1.694919
-1.636143
-1.568088
-1.415923
-1.470494
-1.340882
-1.503859
-1.150999
-1.179405
-1.518857
-0.985938
-1.191007
-1.187782
-1.368869
-0.977978
-1.170511
-1.517313
-0.757843
-0.763250
-0.517568
-0.758608
-0.261949
-0.258779
-0.744810
-1.499761
-1.333223
-1.465345
-1.138724
-1.411923
-1.234635
-1.031024
-1.102699
-0.811999
-0.938121
-0.586867
-0.658508
-0.469554
-0.708347
-0.230537
-0.247345
-0.740398
-0.367117
-0.166355
-0.204595
-0.512493
-0.257240
-0.261714
-1.228626
-1.090561
-1.022930
-0.921100
-0.802242
-0.721674
-0.687926
-0.449179
-0.641016
-0.232193
-0.216275
-0.576628
-0.496528
-0.252796
-0.244051
-0.358564
-0.194416
-0.162296
-1.950229
-1.937698
-1.937631
-1.911047
-1.910857
-1.865153
-1.877258
-1.823501
-1.877076
-1.745892
-1.745353
-1.864755
-1.795551
-1.698868
-1.731004
-1.573206
-1.640980
-1.794763
-1.729605
-1.697455
-1.639178
-1.570798
-1.418539
-1.473373
-1.343714
-1.506926
-1.153394
-1.182025
-1.521972
-0.988302
-1.193809
-1.190718
-1.371944
-0.980673
-1.173517
-1.520463
-0.759656
-0.765274
-0.519118
-0.760808
-0.262748
-0.259673
-0.747132
-1.502879
-1.336331
-1.468345
-1.141715
-1.414709
-1.236860
-1.032780
-1.104797
-0.813272
-0.940000
-0.587684
-0.659584
-0.470359
-0.709683
-0.230881
-0.247802
-0.741981
-0.367548
-0.166509
-0.204835
-0.513692
-0.257814
-0.262404
-1.231401
-1.093432
-1.025567
-0.923842
-0.804577
-0.724045
-0.690254
-0.450907
-0.643186
-0.233188
-0.217221
-0.578490
-0.498299
-0.253761
-0.245052
-0.359843
-0.195259
-0.162959
-0.062964
-0.042343
-0.077889
-0.140841
-0.089746
-0.230339
-0.189931
-0.099393
-0.187464
-0.291649
-0.263754
-0.314924
-0.400660
-0.328631
-0.107317
-0.113794
-0.219125
-0.119050
-0.334275
-0.433337
-0.383187
-0.476318
-0.542362
-0.512912
-0.653856
-0.599588
-0.123188
-0.240399
-0.363007
-0.350171
-0.373077
-0.485773
-0.451512
-0.607681
-0.590689
-0.687198
-0.569547
-0.803277
-0.774986
-0.543796
-0.620936
-0.727674
-0.844735
-0.826362
-0.858832
-0.957910
-0.916643
-0.626851
-0.741012
-0.700816
-0.854046
-0.766118
-0.126342
-0.128633
-0.253576
-0.130183
-0.380738
-0.131086
-0.260477
-0.389893
-0.386252
-0.391860
-0.517443
-0.506816
-0.131435
-0.131316
-0.262571
-0.130777
-0.392362
-0.630863
-0.637846
-0.751927
-0.642170
-0.869094
-0.877612
-0.823327
-0.924582
-0.986994
-0.964697
-1.093071
-1.041792
-0.998440
-1.071869
-1.174574
-1.137184
-1.205696
-1.271968
-1.194773
-1.026303
-1.048794
-1.131364
-1.066367
-1.231048
-1.291236
-1.245124
-1.330506
-1.381729
-1.363374
-1.465696
-1.426112
-0.129853
-0.261008
-0.389545
-0.391548
-0.386408
-0.515285
-0.519767
-0.637127
-0.641415
-0.763379
-0.643763
-0.877750
-0.879976
-0.644073
-0.630927
-0.754059
-0.865240
-0.872820
-0.854984
-0.969970
-0.986117
-0.763121
-0.879406
-0.875859
-0.990237
-0.981488
-1.067701
-1.079457
-1.182616
-1.087890
-1.269947
-1.278808
-1.093061
-1.367587
-1.283959
-1.285410
-1.192982
-1.370039
-1.283065
-1.094941
-1.443680
-1.448666
-1.521930
-1.449707
-1.586683
-1.587404
-1.446736
-1.093435
-1.189043
-1.088347
-1.276742
-1.079431
-1.052499
-1.158023
-1.240668
-1.257281
-1.219876
-1.315528
-1.349659
-1.382636
-1.404410
-1.486090
-1.421684
-1.543049
-1.560296
-1.434714
-1.356035
-1.442141
-1.494300
-1.521163
-1.462054
-1.539452
-1.592833
-1.512184
-1.573197
-1.581955
-1.626926
-1.644062
-1.169341
-1.266183
-1.251076
-1.356385
-1.324668
-1.439581
-1.428005
-1.491760
-1.411696
-1.564613
-1.547926
-1.390291
-1.515524
-1.584080
-1.576561
-1.645253
-1.630120
-1.448238
-1.526158
-1.498896
-1.596880
-1.542709
-0.128575
-0.126968
-0.256391
-0.125079
-0.382203
-0.122861
-0.249084
-0.370556
-0.376933
-0.363003
-0.488158
-0.504733
-0.120304
-0.117376
-0.238887
-0.114025
-0.354169
-0.622837
-0.612815
-0.735532
-0.600724
-0.841984
-0.110169
-0.225211
-0.331848
-0.343870
-0.317762
-0.432534
-0.464742
-0.526217
-0.549541
-0.667297
-0.569422
-0.757708
-0.784335
-0.586357
-0.498803
-0.612204
-0.690145
-0.726529
-0.647769
-0.759972
-0.840254
-0.707261
-0.806973
-0.826071
-0.899286
-0.941523
-0.105695
-0.100456
-0.206659
-0.094209
-0.301141
-0.086554
-0.180437
-0.257250
-0.281304
-0.227470
-0.324423
-0.387950
-0.076764
-0.063316
-0.139627
-0.042284
-0.189684
-0.466473
-0.428165
-0.536586
-0.382563
-0.598512
-1.033659
-1.010898
-1.118073
-0.983826
-1.194614
-0.951966
-1.060411
-1.129037
-1.164491
-1.087720
-1.189850
-1.263285
-0.914768
-0.871615
-0.981280
-0.821829
-1.039984
-1.324225
-1.286752
-1.377679
-1.243112
-1.423984
-1.612506
-1.580153
-1.639069
-1.674964
-1.660292
-1.730096
-1.705047
-1.676585
-1.716404
-1.765340
-1.750051
-1.776336
-1.807344
-1.778034
-1.688303
-1.695760
-1.739304
-1.699177
-1.783364
-1.819028
-1.800865
-1.832856
-1.853421
-1.842761
-1.881632
-1.869564
-1.698678
-1.746083
-1.786292
-1.786643
-1.782335
-1.820210
-1.820804
-1.848317
-1.851779
-1.877555
-1.852036
-1.897906
-1.898103
-1.849075
-1.841556
-1.871138
-1.889224
-1.894986
-1.880365
-1.903141
-1.913668
-1.872007
-1.895576
-1.890177
-1.914026
-1.904158
-1.694301
-1.686013
-1.737722
-1.673672
-1.774722
-1.657040
-1.713808
-1.747765
-1.763289
-1.727797
-1.776012
-1.805751
-1.635803
-1.609597
-1.672371
-1.577996
-1.702988
-1.831306
-1.817264
-1.851903
-1.799035
-1.868062
-1.921571
-1.914514
-1.925946
-1.934481
-1.927963
-1.943533
-1.940226
-1.927799
-1.938025
-1.944867
-1.945003
-1.943129
-1.949157
-1.949395
-1.925458
-1.920779
-1.933892
-1.913440
-1.939561
-1.952761
-1.951843
-1.952659
-1.954335
-1.951529
-1.954824
-1.954882
-0.062860
-0.042186
-0.077826
-0.140583
-0.089689
-0.229837
-0.189384
-0.099306
-0.187218
-0.291133
-0.263258
-0.314359
-0.399849
-0.327835
-0.107173
-0.113607
-0.218755
-0.118799
-0.333646
-0.432250
-0.382093
-0.475232
-0.540985
-0.511820
-0.652217
-0.597931
-0.122893
-0.239897
-0.362279
-0.349493
-0.372350
-0.484898
-0.450629
-0.606706
-0.589646
-0.685956
-0.568465
-0.801922
-0.773521
-0.542701
-0.620068
-0.726649
-0.843698
-0.825152
-0.857990
-0.956898
-0.915224
-0.625510
-0.739465
-0.699213
-0.852333
-0.764239
-0.126028
-0.128358
-0.253042
-0.129979
-0.380073
-0.130963
-0.260169
-0.389547
-0.385733
-0.391696
-0.517099
-0.506107
-0.131385
-0.131333
-0.262538
-0.130854
-0.392380
-0.630153
-0.637323
-0.751244
-0.641850
-0.868463
-0.875564
-0.821211
-0.922635
-0.984819
-0.962886
-1.090817
-1.039406
-0.996799
-1.070004
-1.172695
-1.135098
-1.204051
-1.270113
-1.192481
-1.024861
-1.047584
-1.129934
-1.065413
-1.229669
-1.288944
-1.242641
-1.328445
-1.379469
-1.361586
-1.463498
-1.423665
-0.129977
-0.261202
-0.389839
-0.391730
-0.386772
-0.515618
-0.519824
-0.637493
-0.641653
-0.763509
-0.643840
-0.877971
-0.879997
-0.643958
-0.631394
-0.754497
-0.865778
-0.873213
-0.855633
-0.970627
-0.986460
-0.762849
-0.879213
-0.875447
-0.990161
-0.980945
-1.068502
-1.080117
-1.183279
-1.088381
-1.270794
-1.279464
-1.093353
-1.368221
-1.284395
-1.285607
-1.193225
-1.370168
-1.283000
-1.095010
-1.444510
-1.449249
-1.522424
-1.450015
-1.587357
-1.587760
-1.446744
-1.093268
-1.188792
-1.087929
-1.276381
-1.078746
-1.053428
-1.159009
-1.241872
-1.258317
-1.221223
-1.316971
-1.350731
-1.384329
-1.405925
-1.487646
-1.422990
-1.544842
-1.561846
-1.435795
-1.357869
-1.444080
-1.496474
-1.523161
-1.464360
-1.541830
-1.594840
-1.513242
-1.574477
-1.582944
-1.628420
-1.644939
-1.168510
-1.265509
-1.250032
-1.355893
-1.323410
-1.439261
-1.427296
-1.490822
-1.410588
-1.563843
-1.546752
-1.388819
-1.515363
-1.584085
-1.576186
-1.645428
-1.629511
-1.446553
-1.524602
-1.496994
-1.595469
-1.540592
-0.128733
-0.127161
-0.256702
-0.125269
-0.382603
-0.123046
-0.249414
-0.370989
-0.377353
-0.363429
-0.488679
-0.505198
-0.120473
-0.117532
-0.239188
-0.114170
-0.354581
-0.623377
-0.613401
-0.736159
-0.601336
-0.842717
-0.110305
-0.225480
-0.332224
-0.344264
-0.318117
-0.433012
-0.465255
-0.526803
-0.550147
-0.668032
-0.570039
-0.758579
-0.785198
-0.586976
-0.499362
-0.612911
-0.690990
-0.727394
-0.648578
-0.760971
-0.841285
-0.707974
-0.807810
-0.826864
-0.900275
-0.942387
-0.105824
-0.100577
-0.206896
-0.094320
-0.301472
-0.086654
-0.180634
-0.257520
-0.281608
-0.227698
-0.324763
-0.388374
-0.076849
-0.063381
-0.139765
-0.042321
-0.189861
-0.466995
-0.428641
-0.537220
-0.382982
-0.599270
-1.034691
-1.012010
-1.119305
-0.984994
-1.196071
-0.953167
-1.061782
-1.130626
-1.166028
-1.089331
-1.191663
-1.264979
-0.915979
-0.872814
-0.982685
-0.822996
-1.041588
-1.326162
-1.288756
-1.379853
-1.245145
-1.426377
-1.610496
-1.577831
-1.637420
-1.673080
-1.659033
-1.728359
-1.702948
-1.675730
-1.715300
-1.764395
-1.748700
-1.775800
-1.806554
-1.776446
-1.687857
-1.695716
-1.739016
-1.699519
-1.783234
-1.817597
-1.799060
-1.831820
-1.852151
-1.842126
-1.880541
-1.868094
-1.699389
-1.746589
-1.786954
-1.786912
-1.783369
-1.821015
-1.820825
-1.849255
-1.852338
-1.877863
-1.852202
-1.898342
-1.898163
-1.848841
-1.842851
-1.872189
-1.890370
-1.895784
-1.881837
-1.904358
-1.914217
-1.871529
-1.895253
-1.889469
-1.913855
-1.903254
-1.695360
-1.687399
-1.738950
-1.675359
-1.776104
-1.658998
-1.715663
-1.749762
-1.764992
-1.730048
-1.778115
-1.807263
-1.637998
-1.611987
-1.674717
-1.580531
-1.705443
-1.832929
-1.819184
-1.853612
-1.801215
-1.869835
-1.920853
-1.913450
-1.925572
-1.933942
-1.927934
-1.943163
-1.939560
-1.928112
-1.938125
-1.945075
-1.944922
-1.943620
-1.949446
-1.949175
-1.926101
-1.921741
-1.934609
-1.914711
-1.940331
-1.952668
-1.951525
-1.952784
-1.954341
-1.951876
-1.954887
-1.954825
-1.954237
-1.952539
-1.952532
-1.949022
-1.949010
-1.942989
-1.944571
-1.937536
-1.944559
-1.927283
-1.927262
-1.942963
-1.933746
-1.920631
-1.925134
-1.903001
-1.913146
-1.933710
-1.925082
-1.920583
-1.913089
-1.902938
-1.880264
-1.888950
-1.870729
-1.894490
-1.841309
-1.847752
-1.897160
-1.819446
-1.850848
-1.850746
-1.876559
-1.819154
-1.847466
-1.897115
-1.781850
-1.785251
-1.744656
-1.785041
-1.697584
-1.697205
-1.781260
-1.894372
-1.870501
-1.888804
-1.840910
-1.880162
-1.851866
-1.817305
-1.831266
-1.776160
-1.805723
-1.728097
-1.748145
-1.714479
-1.763553
-1.658265
-1.674642
-1.774689
-1.672877
-1.610357
-1.636970
-1.540527
-1.594765
-1.737632
-1.686474
-1.694048
-1.628146
-1.643490
-1.851700
-1.830872
-1.817050
-1.805090
-1.775778
-1.773836
-1.762599
-1.713073
-1.747276
-1.672695
-1.656245
-1.727525
-1.736616
-1.692979
-1.684856
-1.642533
-1.625710
-1.672048
-1.635207
-1.609210
-1.591977
-1.539003
-1.463520
-1.496708
-1.446068
-1.523987
-1.361258
-1.388160
-1.545791
-1.322605
-1.409565
-1.425900
-1.489623
-1.354333
-1.437523
-1.562527
-1.229099
-1.249100
-1.167472
-1.264189
-1.064660
-1.077682
-1.274755
-1.574558
-1.513511
-1.582167
-1.444735
-1.585587
-0.979890
-1.086564
-1.091647
-1.187143
-0.988585
-1.093178
-1.281116
-1.091327
-1.191175
-1.282135
-1.283523
-1.277028
-1.365765
-1.368079
-0.984497
-1.086195
-1.077832
-1.180889
-0.968497
-1.066183
-1.268238
-1.447778
-1.446816
-1.520077
-1.441918
-1.584966
-0.867719
-0.874436
-0.761899
-0.877938
-0.641209
-0.643079
-0.878487
-0.519043
-0.642742
-0.640385
-0.762096
-0.514531
-0.636111
-0.876261
-0.391904
-0.391082
-0.260734
-0.389057
-0.130663
-0.129732
-0.385922
-0.871377
-0.752838
-0.863864
-0.629962
-0.853703
-1.580370
-1.510558
-1.571758
-1.433069
-1.559016
-1.348024
-1.420173
-1.403063
-1.484757
-1.314204
-1.381473
-1.541941
-1.255695
-1.156517
-1.239227
-1.051106
-1.218597
-1.520251
-1.441187
-1.493586
-1.355060
-1.461539
-1.379600
-1.289164
-1.328403
-1.192775
-1.269922
-1.091171
-1.135232
-1.070009
-1.172602
-0.962979
-0.996698
-1.203742
-0.985239
-0.876011
-0.922908
-0.764690
-0.852468
-1.129535
-1.024579
-1.047088
-0.915020
-0.956348
-0.652653
-0.699512
-0.625691
-0.739619
-0.512026
-0.542796
-0.773528
-0.450674
-0.568446
-0.589534
-0.685872
-0.484801
-0.606531
-0.801774
-0.333750
-0.349512
-0.239914
-0.362243
-0.118842
-0.122916
-0.372314
-0.824879
-0.726371
-0.843294
-0.619852
-0.857450
-0.541409
-0.432621
-0.475515
-0.328140
-0.400032
-0.230057
-0.263415
-0.187285
-0.291253
-0.089715
-0.099342
-0.314491
-0.140729
-0.062935
-0.077876
-0.218863
-0.107237
-0.113672
-0.750759
-0.629857
-0.636882
-0.505944
-0.516698
-0.380008
-0.385597
-0.260063
-0.389312
-0.129963
-0.130906
-0.391361
-0.253053
-0.126057
-0.128375
-0.262299
-0.131299
-0.131202
-1.377101
-1.323424
-1.286112
-1.262300
-1.189164
-1.193484
-1.163500
-1.059418
-1.128174
-0.982746
-0.950978
-1.086992
-1.116845
-1.032383
-1.009722
-0.940255
-0.898172
-0.980526
-0.913883
-0.870849
-0.839293
-0.759224
-0.840782
-0.824928
-0.706249
-0.805879
-0.599855
-0.585480
-0.783290
-0.464015
-0.568546
-0.548687
-0.666334
-0.431816
-0.525404
-0.756719
-0.353637
-0.343305
-0.224822
-0.331273
-0.113840
-0.109966
-0.317202
-0.725617
-0.611358
-0.689320
-0.498046
-0.647050
-0.734457
-0.621924
-0.611934
-0.504012
-0.487463
-0.381709
-0.376426
-0.248775
-0.370046
-0.124959
-0.122722
-0.362492
-0.256127
-0.128461
-0.126870
-0.238554
-0.120152
-0.117211
-0.535918
-0.465784
-0.427565
-0.387311
-0.323918
-0.300606
-0.280802
-0.180084
-0.256788
-0.094016
-0.086368
-0.227066
-0.206274
-0.105492
-0.100258
-0.139345
-0.076593
-0.063166
-1.954441
-1.952913
-1.952901
-1.949596
-1.949562
-1.943787
-1.945388
-1.938606
-1.945363
-1.928624
-1.928579
-1.943717
-1.934794
-1.921937
-1.926467
-1.904569
-1.914749
-1.934675
-1.926347
-1.921765
-1.914644
-1.904340
-1.882082
-1.890797
-1.872829
-1.896349
-1.843626
-1.850075
-1.899014
-1.821961
-1.853163
-1.853039
-1.878643
-1.821642
-1.849726
-1.898945
-1.784533
-1.787938
-1.747496
-1.787728
-1.700538
-1.700177
-1.783922
-1.896158
-1.872507
-1.890525
-1.843114
-1.881782
-1.853911
-1.819547
-1.833554
-1.778571
-1.808234
-1.730637
-1.750752
-1.717251
-1.766216
-1.661099
-1.677557
-1.777373
-1.675497
-1.613008
-1.639714
-1.543175
-1.597620
-1.740464
-1.689429
-1.696999
-1.631180
-1.646535
-1.853524
-1.832990
-1.819037
-1.807464
-1.777912
-1.776439
-1.765112
-1.715715
-1.749686
-1.675530
-1.658994
-1.729804
-1.739425
-1.695948
-1.687769
-1.645603
-1.628697
-1.674458
-1.637852
-1.611717
-1.594805
-1.541575
-1.466104
-1.499419
-1.448821
-1.526811
-1.363883
-1.390928
-1.548736
-1.325337
-1.412469
-1.428886
-1.492626
-1.357244
-1.440562
-1.565583
-1.231603
-1.251732
-1.169989
-1.266925
-1.066935
-1.080077
-1.277577
-1.577644
-1.516609
-1.585265
-1.447812
-1.588698
-0.982148
-1.089069
-1.094251
-1.189866
-0.991054
-1.095873
-1.284017
-1.094098
-1.194056
-1.285157
-1.286492
-1.280089
-1.368879
-1.371113
-0.987134
-1.089030
-1.080711
-1.183876
-0.971239
-1.069089
-1.271325
-1.450892
-1.449958
-1.523221
-1.445075
-1.588093
-0.869709
-0.876540
-0.763823
-0.880151
-0.642826
-0.644796
-0.880798
-0.520515
-0.644552
-0.642279
-0.764218
-0.516155
-0.638079
-0.878662
-0.393020
-0.392269
-0.261584
-0.390309
-0.131094
-0.130189
-0.387231
-0.873851
-0.755111
-0.866399
-0.631992
-0.856277
-1.583491
-1.513707
-1.574852
-1.436223
-1.562060
-1.351158
-1.423304
-1.406145
-1.487834
-1.317270
-1.384485
-1.544916
-1.258785
-1.159532
-1.242298
-1.054016
-1.221621
-1.523132
-1.444098
-1.496351
-1.357978
-1.464159
-1.382037
-1.291409
-1.330844
-1.194803
-1.272333
-1.092974
-1.137225
-1.071941
-1.174779
-0.964663
-0.998545
-1.206091
-0.986811
-0.877351
-0.924422
-0.765803
-0.853902
-1.131793
-1.026581
-1.049234
-0.916760
-0.958365
-0.653549
-0.700551
-0.626637
-0.740804
-0.512748
-0.543631
-0.774859
-0.451382
-0.569397
-0.590600
-0.687081
-0.485706
-0.607713
-0.803248
-0.334236
-0.350076
-0.240314
-0.362886
-0.119026
-0.123130
-0.373037
-0.826490
-0.727835
-0.845039
-0.621147
-0.859321
-0.542102
-0.433132
-0.476127
-0.328492
-0.400551
-0.230280
-0.263692
-0.187479
-0.291594
-0.089795
-0.099444
-0.314902
-0.140849