# vtk DataFile Version 2.0
this shit
ASCII
DATASET POLYDATA
POINTS 4 double
-12.566371 -12.566371 0.000000
12.566371 -12.566371 0.000000
-12.566371 12.566371 0.000000
12.566371 12.566371 0.000000
POLYGONS 2 8
3 0 1 3
3 0 3 2
POINT_DATA 4
SCALARS solution_0 double
LOOKUP_TABLE defaul
-34.426493
-33.420011
-33.420011
-34.426493
SCALARS solution_1 double
LOOKUP_TABLE defaul
-27.738860
-27.726130
-27.726130
-27.738860
