# vtk DataFile Version 2.0
thi shit
ASCII
DATASET POLYDATA
POINTS 100 double
0.000000 0.000000 0.000000
0.063467 0.000000 0.000000
0.126933 0.000000 0.000000
0.190400 0.000000 0.000000
0.253866 0.000000 0.000000
0.317333 0.000000 0.000000
0.380799 0.000000 0.000000
0.444266 0.000000 0.000000
0.507732 0.000000 0.000000
0.571199 0.000000 0.000000
0.634665 0.000000 0.000000
0.698132 0.000000 0.000000
0.761598 0.000000 0.000000
0.825065 0.000000 0.000000
0.888531 0.000000 0.000000
0.951998 0.000000 0.000000
1.015464 0.000000 0.000000
1.078931 0.000000 0.000000
1.142397 0.000000 0.000000
1.205864 0.000000 0.000000
1.269330 0.000000 0.000000
1.332797 0.000000 0.000000
1.396263 0.000000 0.000000
1.459730 0.000000 0.000000
1.523196 0.000000 0.000000
1.586663 0.000000 0.000000
1.650129 0.000000 0.000000
1.713596 0.000000 0.000000
1.777063 0.000000 0.000000
1.840529 0.000000 0.000000
1.903996 0.000000 0.000000
1.967462 0.000000 0.000000
2.030929 0.000000 0.000000
2.094395 0.000000 0.000000
2.157862 0.000000 0.000000
2.221328 0.000000 0.000000
2.284795 0.000000 0.000000
2.348261 0.000000 0.000000
2.411728 0.000000 0.000000
2.475194 0.000000 0.000000
2.538661 0.000000 0.000000
2.602127 0.000000 0.000000
2.665594 0.000000 0.000000
2.729060 0.000000 0.000000
2.792527 0.000000 0.000000
2.855993 0.000000 0.000000
2.919460 0.000000 0.000000
2.982926 0.000000 0.000000
3.046393 0.000000 0.000000
3.109859 0.000000 0.000000
3.173326 0.000000 0.000000
3.236792 0.000000 0.000000
3.300259 0.000000 0.000000
3.363725 0.000000 0.000000
3.427192 0.000000 0.000000
3.490659 0.000000 0.000000
3.554125 0.000000 0.000000
3.617592 0.000000 0.000000
3.681058 0.000000 0.000000
3.744525 0.000000 0.000000
3.807991 0.000000 0.000000
3.871458 0.000000 0.000000
3.934924 0.000000 0.000000
3.998391 0.000000 0.000000
4.061857 0.000000 0.000000
4.125324 0.000000 0.000000
4.188790 0.000000 0.000000
4.252257 0.000000 0.000000
4.315723 0.000000 0.000000
4.379190 0.000000 0.000000
4.442656 0.000000 0.000000
4.506123 0.000000 0.000000
4.569589 0.000000 0.000000
4.633056 0.000000 0.000000
4.696522 0.000000 0.000000
4.759989 0.000000 0.000000
4.823455 0.000000 0.000000
4.886922 0.000000 0.000000
4.950388 0.000000 0.000000
5.013855 0.000000 0.000000
5.077321 0.000000 0.000000
5.140788 0.000000 0.000000
5.204254 0.000000 0.000000
5.267721 0.000000 0.000000
5.331188 0.000000 0.000000
5.394654 0.000000 0.000000
5.458121 0.000000 0.000000
5.521587 0.000000 0.000000
5.585054 0.000000 0.000000
5.648520 0.000000 0.000000
5.711987 0.000000 0.000000
5.775453 0.000000 0.000000
5.838920 0.000000 0.000000
5.902386 0.000000 0.000000
5.965853 0.000000 0.000000
6.029319 0.000000 0.000000
6.092786 0.000000 0.000000
6.156252 0.000000 0.000000
6.219719 0.000000 0.000000
6.283185 0.000000 0.000000
POLYGONS 99 297
2 0 1
2 1 2
2 2 3
2 3 4
2 4 5
2 5 6
2 6 7
2 7 8
2 8 9
2 9 10
2 10 11
2 11 12
2 12 13
2 13 14
2 14 15
2 15 16
2 16 17
2 17 18
2 18 19
2 19 20
2 20 21
2 21 22
2 22 23
2 23 24
2 24 25
2 25 26
2 26 27
2 27 28
2 28 29
2 29 30
2 30 31
2 31 32
2 32 33
2 33 34
2 34 35
2 35 36
2 36 37
2 37 38
2 38 39
2 39 40
2 40 41
2 41 42
2 42 43
2 43 44
2 44 45
2 45 46
2 46 47
2 47 48
2 48 49
2 49 50
2 50 51
2 51 52
2 52 53
2 53 54
2 54 55
2 55 56
2 56 57
2 57 58
2 58 59
2 59 60
2 60 61
2 61 62
2 62 63
2 63 64
2 64 65
2 65 66
2 66 67
2 67 68
2 68 69
2 69 70
2 70 71
2 71 72
2 72 73
2 73 74
2 74 75
2 75 76
2 76 77
2 77 78
2 78 79
2 79 80
2 80 81
2 81 82
2 82 83
2 83 84
2 84 85
2 85 86
2 86 87
2 87 88
2 88 89
2 89 90
2 90 91
2 91 92
2 92 93
2 93 94
2 94 95
2 95 96
2 96 97
2 97 98
2 98 99
CELL_DATA 99
\\ The following number tells the amount of Scalar vectors to read
\\  1
SCALARS Pot_0 double
LOOKUP_TABLE defaul
0.744074
0.704096
0.665705
0.628854
0.593497
0.559591
0.527090
0.495953
0.466139
0.437607
0.410320
0.384238
0.359326
0.335547
0.312866
0.291251
0.270667
0.251082
0.232467
0.214789
0.198020
0.182132
0.167095
0.152884
0.139472
0.126833
0.114942
0.103775
0.093309
0.083521
0.074388
0.065889
0.058002
0.050709
0.043988
0.037820
0.032187
0.027071
0.022453
0.018317
0.014646
0.011424
0.008634
0.006262
0.004293
0.002713
0.001507
0.000661
0.000163
0.000000
0.000159
0.000628
0.001396
0.002451
0.003782
0.005378
0.007228
0.009324
0.011654
0.014210
0.016982
0.019962
0.023140
0.026508
0.030058
0.033782
0.037672
0.041721
0.045922
0.050268
0.054751
0.059366
0.064106
0.068964
0.073936
0.079014
0.084194
0.089470
0.094837
0.100289
0.105822
0.111431
0.117112
0.122859
0.128669
0.134538
0.140460
0.146433
0.152453
0.158516
0.164619
0.170757
0.176929
0.183130
0.189357
0.195609
0.201880
0.208170
0.214476
POINT_DATA 100
\\ The following number tells the amount of Scalar vectors to read
\\  4
SCALARS Psi_0 double
LOOKUP_TABLE defaul
0.000000
0.014361
0.028748
0.043179
0.057672
0.072239
0.086890
0.101627
0.116455
0.131369
0.146368
0.161442
0.176586
0.191781
0.207020
0.222279
0.237548
0.252798
0.268016
0.283171
0.298246
0.313207
0.328037
0.342699
0.357176
0.371429
0.385439
0.399167
0.412590
0.425686
0.438412
0.450756
0.462675
0.474157
0.485162
0.495680
0.505671
0.515128
0.524014
0.532324
0.540024
0.547111
0.553554
0.559355
0.564483
0.568945
0.572713
0.575797
0.578174
0.579855
0.580820
0.581086
0.580634
0.579486
0.577624
0.575065
0.571822
0.567886
0.563283
0.558006
0.552085
0.545514
0.538324
0.530514
0.522116
0.513129
0.503588
0.493494
0.482882
0.471756
0.460150
0.448070
0.435551
0.422599
0.409249
0.395508
0.381410
0.366962
0.352199
0.337129
0.321782
0.306169
0.290319
0.274241
0.257959
0.241495
0.224859
0.208074
0.191151
0.174111
0.156963
0.139727
0.122412
0.105033
0.087600
0.070127
0.052620
0.035092
0.017549
0.000000
SCALARS Psi_1 double
LOOKUP_TABLE defaul
0.000000
0.031420
0.062790
0.094052
0.125140
0.155975
0.186476
0.216550
0.246103
0.275028
0.303227
0.330582
0.356990
0.382327
0.406493
0.429360
0.450832
0.470785
0.489127
0.505744
0.520554
0.533452
0.544371
0.553219
0.559947
0.564480
0.566787
0.566813
0.564541
0.559962
0.553056
0.543846
0.532334
0.518567
0.502572
0.484418
0.464155
0.441874
0.417649
0.391592
0.363795
0.334390
0.303490
0.271239
0.237769
0.203237
0.167787
0.131586
0.094789
0.057566
0.020083
-0.017490
-0.054985
-0.092231
-0.129062
-0.165312
-0.200821
-0.235426
-0.268979
-0.301326
-0.332332
-0.361855
-0.389775
-0.415964
-0.440323
-0.462736
-0.483126
-0.501397
-0.517490
-0.531330
-0.542881
-0.552085
-0.558931
-0.563383
-0.565449
-0.565113
-0.562408
-0.557337
-0.549952
-0.540276
-0.528381
-0.514308
-0.498144
-0.479950
-0.459819
-0.437850
-0.414127
-0.388768
-0.361870
-0.333560
-0.303946
-0.273160
-0.241320
-0.208561
-0.175008
-0.140797
-0.106057
-0.070923
-0.035526
0.000000
SCALARS Psi_2 double
LOOKUP_TABLE defaul
0.000000
0.050178
0.100021
0.149180
0.197300
0.244014
0.288960
0.331765
0.372080
0.409544
0.443835
0.474623
0.501628
0.524568
0.543219
0.557363
0.566848
0.571529
0.571337
0.566212
0.556173
0.541251
0.521558
0.497218
0.468435
0.435423
0.398472
0.357883
0.314015
0.267263
0.218034
0.166785
0.113979
0.060108
0.005672
-0.048816
-0.102843
-0.155897
-0.207469
-0.257071
-0.304220
-0.348470
-0.389383
-0.426575
-0.459673
-0.488368
-0.512368
-0.531454
-0.545425
-0.554160
-0.557559
-0.555605
-0.548300
-0.535733
-0.518010
-0.495310
-0.467865
-0.435923
-0.399810
-0.359861
-0.316476
-0.270060
-0.221072
-0.169971
-0.117256
-0.063423
-0.008989
0.045530
0.099619
0.152767
0.204475
0.254258
0.301655
0.346220
0.387552
0.425260
0.459013
0.488493
0.513449
0.533647
0.548927
0.559143
0.564231
0.564139
0.558889
0.548553
0.533218
0.513054
0.488240
0.459028
0.425677
0.388513
0.347864
0.304116
0.257656
0.208913
0.158316
0.106326
0.053396
0.000000
SCALARS Psi_3 double
LOOKUP_TABLE defaul
0.000000
-0.068801
-0.136656
-0.202611
-0.265725
-0.325066
-0.379756
-0.428951
-0.471896
-0.507894
-0.536369
-0.556823
-0.568906
-0.572361
-0.567097
-0.553121
-0.530618
-0.499871
-0.461334
-0.415555
-0.363237
-0.305166
-0.242251
-0.175468
-0.105878
-0.034586
0.037262
0.108508
0.177992
0.244583
0.307182
0.364764
0.416365
0.461136
0.498317
0.527295
0.547564
0.558791
0.560763
0.553453
0.536953
0.511548
0.477633
0.435783
0.386674
0.331134
0.270071
0.204514
0.135543
0.064316
-0.007986
-0.080153
-0.150984
-0.219300
-0.283957
-0.343883
-0.398085
-0.445653
-0.485810
-0.517878
-0.541344
-0.555808
-0.561051
-0.556976
-0.543676
-0.521360
-0.490424
-0.451370
-0.404867
-0.351674
-0.292689
-0.228878
-0.161306
-0.091080
-0.019361
0.052678
0.123854
0.193003
0.259002
0.320774
0.377324
0.427731
0.471195
0.507007
0.534606
0.553563
0.563569
0.564493
0.556316
0.539199
0.513415
0.479406
0.437713
0.389031
0.334131
0.273913
0.209331
0.141428
0.071277
0.000000
