# vtk DataFile Version 2.0
this shit
ASCII
DATASET POLYDATA
POINTS 2500 double
-3.141593 -3.141593 0.000000
-3.013364 -3.141593 0.000000
-2.885136 -3.141593 0.000000
-2.756908 -3.141593 0.000000
-2.628680 -3.141593 0.000000
-2.500451 -3.141593 0.000000
-2.372223 -3.141593 0.000000
-2.243995 -3.141593 0.000000
-2.115766 -3.141593 0.000000
-1.987538 -3.141593 0.000000
-1.859310 -3.141593 0.000000
-1.731082 -3.141593 0.000000
-1.602853 -3.141593 0.000000
-1.474625 -3.141593 0.000000
-1.346397 -3.141593 0.000000
-1.218169 -3.141593 0.000000
-1.089940 -3.141593 0.000000
-0.961712 -3.141593 0.000000
-0.833484 -3.141593 0.000000
-0.705255 -3.141593 0.000000
-0.577027 -3.141593 0.000000
-0.448799 -3.141593 0.000000
-0.320571 -3.141593 0.000000
-0.192342 -3.141593 0.000000
-0.064114 -3.141593 0.000000
0.064114 -3.141593 0.000000
0.192342 -3.141593 0.000000
0.320571 -3.141593 0.000000
0.448799 -3.141593 0.000000
0.577027 -3.141593 0.000000
0.705255 -3.141593 0.000000
0.833484 -3.141593 0.000000
0.961712 -3.141593 0.000000
1.089940 -3.141593 0.000000
1.218169 -3.141593 0.000000
1.346397 -3.141593 0.000000
1.474625 -3.141593 0.000000
1.602853 -3.141593 0.000000
1.731082 -3.141593 0.000000
1.859310 -3.141593 0.000000
1.987538 -3.141593 0.000000
2.115766 -3.141593 0.000000
2.243995 -3.141593 0.000000
2.372223 -3.141593 0.000000
2.500451 -3.141593 0.000000
2.628680 -3.141593 0.000000
2.756908 -3.141593 0.000000
2.885136 -3.141593 0.000000
3.013364 -3.141593 0.000000
3.141593 -3.141593 0.000000
-3.141593 -3.013364 0.000000
-3.013364 -3.013364 0.000000
-2.885136 -3.013364 0.000000
-2.756908 -3.013364 0.000000
-2.628680 -3.013364 0.000000
-2.500451 -3.013364 0.000000
-2.372223 -3.013364 0.000000
-2.243995 -3.013364 0.000000
-2.115766 -3.013364 0.000000
-1.987538 -3.013364 0.000000
-1.859310 -3.013364 0.000000
-1.731082 -3.013364 0.000000
-1.602853 -3.013364 0.000000
-1.474625 -3.013364 0.000000
-1.346397 -3.013364 0.000000
-1.218169 -3.013364 0.000000
-1.089940 -3.013364 0.000000
-0.961712 -3.013364 0.000000
-0.833484 -3.013364 0.000000
-0.705255 -3.013364 0.000000
-0.577027 -3.013364 0.000000
-0.448799 -3.013364 0.000000
-0.320571 -3.013364 0.000000
-0.192342 -3.013364 0.000000
-0.064114 -3.013364 0.000000
0.064114 -3.013364 0.000000
0.192342 -3.013364 0.000000
0.320571 -3.013364 0.000000
0.448799 -3.013364 0.000000
0.577027 -3.013364 0.000000
0.705255 -3.013364 0.000000
0.833484 -3.013364 0.000000
0.961712 -3.013364 0.000000
1.089940 -3.013364 0.000000
1.218169 -3.013364 0.000000
1.346397 -3.013364 0.000000
1.474625 -3.013364 0.000000
1.602853 -3.013364 0.000000
1.731082 -3.013364 0.000000
1.859310 -3.013364 0.000000
1.987538 -3.013364 0.000000
2.115766 -3.013364 0.000000
2.243995 -3.013364 0.000000
2.372223 -3.013364 0.000000
2.500451 -3.013364 0.000000
2.628680 -3.013364 0.000000
2.756908 -3.013364 0.000000
2.885136 -3.013364 0.000000
3.013364 -3.013364 0.000000
3.141593 -3.013364 0.000000
-3.141593 -2.885136 0.000000
-3.013364 -2.885136 0.000000
-2.885136 -2.885136 0.000000
-2.756908 -2.885136 0.000000
-2.628680 -2.885136 0.000000
-2.500451 -2.885136 0.000000
-2.372223 -2.885136 0.000000
-2.243995 -2.885136 0.000000
-2.115766 -2.885136 0.000000
-1.987538 -2.885136 0.000000
-1.859310 -2.885136 0.000000
-1.731082 -2.885136 0.000000
-1.602853 -2.885136 0.000000
-1.474625 -2.885136 0.000000
-1.346397 -2.885136 0.000000
-1.218169 -2.885136 0.000000
-1.089940 -2.885136 0.000000
-0.961712 -2.885136 0.000000
-0.833484 -2.885136 0.000000
-0.705255 -2.885136 0.000000
-0.577027 -2.885136 0.000000
-0.448799 -2.885136 0.000000
-0.320571 -2.885136 0.000000
-0.192342 -2.885136 0.000000
-0.064114 -2.885136 0.000000
0.064114 -2.885136 0.000000
0.192342 -2.885136 0.000000
0.320571 -2.885136 0.000000
0.448799 -2.885136 0.000000
0.577027 -2.885136 0.000000
0.705255 -2.885136 0.000000
0.833484 -2.885136 0.000000
0.961712 -2.885136 0.000000
1.089940 -2.885136 0.000000
1.218169 -2.885136 0.000000
1.346397 -2.885136 0.000000
1.474625 -2.885136 0.000000
1.602853 -2.885136 0.000000
1.731082 -2.885136 0.000000
1.859310 -2.885136 0.000000
1.987538 -2.885136 0.000000
2.115766 -2.885136 0.000000
2.243995 -2.885136 0.000000
2.372223 -2.885136 0.000000
2.500451 -2.885136 0.000000
2.628680 -2.885136 0.000000
2.756908 -2.885136 0.000000
2.885136 -2.885136 0.000000
3.013364 -2.885136 0.000000
3.141593 -2.885136 0.000000
-3.141593 -2.756908 0.000000
-3.013364 -2.756908 0.000000
-2.885136 -2.756908 0.000000
-2.756908 -2.756908 0.000000
-2.628680 -2.756908 0.000000
-2.500451 -2.756908 0.000000
-2.372223 -2.756908 0.000000
-2.243995 -2.756908 0.000000
-2.115766 -2.756908 0.000000
-1.987538 -2.756908 0.000000
-1.859310 -2.756908 0.000000
-1.731082 -2.756908 0.000000
-1.602853 -2.756908 0.000000
-1.474625 -2.756908 0.000000
-1.346397 -2.756908 0.000000
-1.218169 -2.756908 0.000000
-1.089940 -2.756908 0.000000
-0.961712 -2.756908 0.000000
-0.833484 -2.756908 0.000000
-0.705255 -2.756908 0.000000
-0.577027 -2.756908 0.000000
-0.448799 -2.756908 0.000000
-0.320571 -2.756908 0.000000
-0.192342 -2.756908 0.000000
-0.064114 -2.756908 0.000000
0.064114 -2.756908 0.000000
0.192342 -2.756908 0.000000
0.320571 -2.756908 0.000000
0.448799 -2.756908 0.000000
0.577027 -2.756908 0.000000
0.705255 -2.756908 0.000000
0.833484 -2.756908 0.000000
0.961712 -2.756908 0.000000
1.089940 -2.756908 0.000000
1.218169 -2.756908 0.000000
1.346397 -2.756908 0.000000
1.474625 -2.756908 0.000000
1.602853 -2.756908 0.000000
1.731082 -2.756908 0.000000
1.859310 -2.756908 0.000000
1.987538 -2.756908 0.000000
2.115766 -2.756908 0.000000
2.243995 -2.756908 0.000000
2.372223 -2.756908 0.000000
2.500451 -2.756908 0.000000
2.628680 -2.756908 0.000000
2.756908 -2.756908 0.000000
2.885136 -2.756908 0.000000
3.013364 -2.756908 0.000000
3.141593 -2.756908 0.000000
-3.141593 -2.628680 0.000000
-3.013364 -2.628680 0.000000
-2.885136 -2.628680 0.000000
-2.756908 -2.628680 0.000000
-2.628680 -2.628680 0.000000
-2.500451 -2.628680 0.000000
-2.372223 -2.628680 0.000000
-2.243995 -2.628680 0.000000
-2.115766 -2.628680 0.000000
-1.987538 -2.628680 0.000000
-1.859310 -2.628680 0.000000
-1.731082 -2.628680 0.000000
-1.602853 -2.628680 0.000000
-1.474625 -2.628680 0.000000
-1.346397 -2.628680 0.000000
-1.218169 -2.628680 0.000000
-1.089940 -2.628680 0.000000
-0.961712 -2.628680 0.000000
-0.833484 -2.628680 0.000000
-0.705255 -2.628680 0.000000
-0.577027 -2.628680 0.000000
-0.448799 -2.628680 0.000000
-0.320571 -2.628680 0.000000
-0.192342 -2.628680 0.000000
-0.064114 -2.628680 0.000000
0.064114 -2.628680 0.000000
0.192342 -2.628680 0.000000
0.320571 -2.628680 0.000000
0.448799 -2.628680 0.000000
0.577027 -2.628680 0.000000
0.705255 -2.628680 0.000000
0.833484 -2.628680 0.000000
0.961712 -2.628680 0.000000
1.089940 -2.628680 0.000000
1.218169 -2.628680 0.000000
1.346397 -2.628680 0.000000
1.474625 -2.628680 0.000000
1.602853 -2.628680 0.000000
1.731082 -2.628680 0.000000
1.859310 -2.628680 0.000000
1.987538 -2.628680 0.000000
2.115766 -2.628680 0.000000
2.243995 -2.628680 0.000000
2.372223 -2.628680 0.000000
2.500451 -2.628680 0.000000
2.628680 -2.628680 0.000000
2.756908 -2.628680 0.000000
2.885136 -2.628680 0.000000
3.013364 -2.628680 0.000000
3.141593 -2.628680 0.000000
-3.141593 -2.500451 0.000000
-3.013364 -2.500451 0.000000
-2.885136 -2.500451 0.000000
-2.756908 -2.500451 0.000000
-2.628680 -2.500451 0.000000
-2.500451 -2.500451 0.000000
-2.372223 -2.500451 0.000000
-2.243995 -2.500451 0.000000
-2.115766 -2.500451 0.000000
-1.987538 -2.500451 0.000000
-1.859310 -2.500451 0.000000
-1.731082 -2.500451 0.000000
-1.602853 -2.500451 0.000000
-1.474625 -2.500451 0.000000
-1.346397 -2.500451 0.000000
-1.218169 -2.500451 0.000000
-1.089940 -2.500451 0.000000
-0.961712 -2.500451 0.000000
-0.833484 -2.500451 0.000000
-0.705255 -2.500451 0.000000
-0.577027 -2.500451 0.000000
-0.448799 -2.500451 0.000000
-0.320571 -2.500451 0.000000
-0.192342 -2.500451 0.000000
-0.064114 -2.500451 0.000000
0.064114 -2.500451 0.000000
0.192342 -2.500451 0.000000
0.320571 -2.500451 0.000000
0.448799 -2.500451 0.000000
0.577027 -2.500451 0.000000
0.705255 -2.500451 0.000000
0.833484 -2.500451 0.000000
0.961712 -2.500451 0.000000
1.089940 -2.500451 0.000000
1.218169 -2.500451 0.000000
1.346397 -2.500451 0.000000
1.474625 -2.500451 0.000000
1.602853 -2.500451 0.000000
1.731082 -2.500451 0.000000
1.859310 -2.500451 0.000000
1.987538 -2.500451 0.000000
2.115766 -2.500451 0.000000
2.243995 -2.500451 0.000000
2.372223 -2.500451 0.000000
2.500451 -2.500451 0.000000
2.628680 -2.500451 0.000000
2.756908 -2.500451 0.000000
2.885136 -2.500451 0.000000
3.013364 -2.500451 0.000000
3.141593 -2.500451 0.000000
-3.141593 -2.372223 0.000000
-3.013364 -2.372223 0.000000
-2.885136 -2.372223 0.000000
-2.756908 -2.372223 0.000000
-2.628680 -2.372223 0.000000
-2.500451 -2.372223 0.000000
-2.372223 -2.372223 0.000000
-2.243995 -2.372223 0.000000
-2.115766 -2.372223 0.000000
-1.987538 -2.372223 0.000000
-1.859310 -2.372223 0.000000
-1.731082 -2.372223 0.000000
-1.602853 -2.372223 0.000000
-1.474625 -2.372223 0.000000
-1.346397 -2.372223 0.000000
-1.218169 -2.372223 0.000000
-1.089940 -2.372223 0.000000
-0.961712 -2.372223 0.000000
-0.833484 -2.372223 0.000000
-0.705255 -2.372223 0.000000
-0.577027 -2.372223 0.000000
-0.448799 -2.372223 0.000000
-0.320571 -2.372223 0.000000
-0.192342 -2.372223 0.000000
-0.064114 -2.372223 0.000000
0.064114 -2.372223 0.000000
0.192342 -2.372223 0.000000
0.320571 -2.372223 0.000000
0.448799 -2.372223 0.000000
0.577027 -2.372223 0.000000
0.705255 -2.372223 0.000000
0.833484 -2.372223 0.000000
0.961712 -2.372223 0.000000
1.089940 -2.372223 0.000000
1.218169 -2.372223 0.000000
1.346397 -2.372223 0.000000
1.474625 -2.372223 0.000000
1.602853 -2.372223 0.000000
1.731082 -2.372223 0.000000
1.859310 -2.372223 0.000000
1.987538 -2.372223 0.000000
2.115766 -2.372223 0.000000
2.243995 -2.372223 0.000000
2.372223 -2.372223 0.000000
2.500451 -2.372223 0.000000
2.628680 -2.372223 0.000000
2.756908 -2.372223 0.000000
2.885136 -2.372223 0.000000
[...]
POINT_DATA 2500
SCALARS solution_0 double
LOOKUP_TABLE defaul
-20.449185
-20.707506
-20.963695
-21.217684
-21.469386
-21.718686
-21.965431
-22.209416
-22.450368
-22.687924
-22.921605
-23.150792
-23.374689
-23.592295
-23.802378
-24.003455
-24.193787
-24.371394
-24.534099
-24.679590
-24.805522
-24.909636
-24.989894
-25.044614
-25.072592
-25.073198
-25.046418
-24.992856
-24.913687
-24.810560
-24.685479
-24.540675
-24.378471
-24.201163
-24.010935
-23.809777
-23.599453
-23.381479
-23.157120
-22.927412
-22.693181
-22.455073
-22.213587
-21.969100
-21.721895
-21.472182
-21.220114
-20.965806
-20.709341
-20.450781
-20.447086
-20.705325
-20.961444
-21.215383
-21.467063
-21.716373
-21.963166
-22.207235
-22.448295
-22.685956
-22.919686
-23.148778
-23.372304
-23.589078
-23.797631
-23.996201
-24.182756
-24.355055
-24.510754
-24.647544
-24.763311
-24.856290
-24.925195
-24.969283
-24.988356
-24.982692
-24.952940
-24.900002
-24.824934
-24.728899
-24.613150
-24.479040
-24.328022
-24.161644
-23.981510
-23.789239
-23.586405
-23.374487
-23.154831
-22.928619
-22.696861
-22.460395
-22.219901
-21.975916
-21.728857
-21.479043
-21.226711
-20.972040
-20.715160
-20.456165
-20.446982
-20.705348
-20.961600
-21.215659
-21.467418
-21.716720
-21.963344
-22.206973
-22.447164
-22.683301
-22.914557
-23.139843
-23.357771
-23.566638
-23.764439
-23.948932
-24.117754
-24.268592
-24.399399
-24.508624
-24.595418
-24.659778
-24.702554
-24.725287
-24.729864
-24.718055
-24.691082
-24.649388
-24.592683
-24.520228
-24.431199
-24.324997
-24.201440
-24.060834
-23.903944
-23.731906
-23.546114
-23.348102
-23.139438
-22.921629
-22.696065
-22.463973
-22.226403
-21.984222
-21.738132
-21.488682
-21.236298
-20.981297
-20.723918
-20.464332
-20.449044
-20.707789
-20.964410
-21.218782
-21.470718
-21.719946
-21.966065
-22.208509
-22.446490
-22.678945
-22.904483
-23.121352
-23.327432
-23.520277
-23.697214
-23.855516
-23.992627
-24.106452
-24.195671
-24.260063
-24.300783
-24.320522
-24.323440
-24.314691
-24.299468
-24.281724
-24.263071
-24.242465
-24.216813
-24.182086
-24.134352
-24.070426
-23.988145
-23.886383
-23.764935
-23.624348
-23.465738
-23.290611
-23.100706
-22.897852
-22.683858
-22.460425
-22.229086
-21.991175
-21.747819
-21.499938
-21.248264
-20.993368
-20.735683
-20.475532
-20.453634
-20.713029
-20.970244
-21.225052
-21.477108
-21.725907
-21.970722
-22.210546
-22.444023
-22.669397
-22.884479
-23.086655
-23.272955
-23.440182
-23.585112
-23.704757
-23.796673
-23.859315
-23.892414
-23.897382
-23.877710
-23.839281
-23.790387
-23.741040
-23.701159
-23.677779
-23.672628
-23.681822
-23.697828
-23.712113
-23.717023
-23.706596
-23.676680
-23.624740
-23.549578
-23.451063
-23.329887
-23.187355
-23.025197
-22.845409
-22.650105
-22.441401
-22.221317
-21.991705
-21.754206
-21.510225
-21.260933
-21.007277
-20.750003
-20.489684
-20.461271
-20.721561
-20.979492
-21.234638
-21.486369
-21.733781
-21.975617
-22.210201
-22.435384
-22.648515
-22.846478
-23.025774
-23.182683
-23.313480
-23.414707
-23.483480
-23.517819
-23.517017
-23.482047
-23.416036
-23.324832
-23.217595
-23.107169
-23.009457
-22.940657
-22.912031
-22.925063
-22.971373
-23.037318
-23.108975
-23.174777
-23.226118
-23.257042
-23.263731
-23.244031
-23.197081
-23.123026
-23.022787
-22.897879
-22.750237
-22.582076
-22.395755
-22.193654
-21.978081
-21.751187
-21.514910
-21.270940
-21.020713
-20.765408
-20.505971
-20.472493
-20.733777
-20.992257
-21.247167
-21.497405
-21.741452
-21.977298
-22.202389
-22.413621
-22.607388
-22.779698
-22.926350
-23.043169
-23.126273
-23.172362
-23.179021
-23.145029
-23.070714
-22.958366
-22.812777
-22.641991
-22.458263
-22.279021
-22.126763
-22.025515
-21.992124
-22.027395
-22.116571
-22.238382
-22.373046
-22.505240
-22.624019
-22.721885
-22.793893
-22.836998
-22.849595
-22.831204
-22.782231
-22.703794
-22.597560
-22.465616
-22.310337
-22.134262
-21.939988
-21.730062
-21.506898
-21.272710
-21.029466
-20.778865
-20.522332
-20.487549
-20.749552
-21.007827
-21.261068
-21.507485
-21.744727
-21.969844
-22.179297
-22.369024
-22.534586
-22.671361
-22.774787
-22.840622
-22.865219
-22.845787
-22.780659
-22.669570
-22.513978
-22.317488
-22.086448
-21.830865
-21.565758
-21.312881
-21.101636
-20.965256
-20.927675
-20.988505
-21.124636
-21.305974
-21.506831
-21.708519
-21.898138
-22.066905
-22.208908
-22.320283
-22.398699
-22.443014
-22.453043
-22.429382
-22.373274
-22.286482
-22.171183
-22.029850
-21.865152
-21.679842
-21.476659
-21.258240
-21.027044
-20.785299
-20.534959
-20.505892
-20.767612
-21.023922
-21.272760
-21.511445
-21.736648
-21.944423
-22.130301
-22.289448
-22.416884
-22.507721
-22.557427
-22.562069
-22.518557
-22.424861
-22.280237
-22.085469
-21.843172
-21.558214
-21.238367
-20.895351
-20.546561
-20.217631
-19.944787
-19.771536
-19.730422
-19.819297
-20.004769
-20.247157
-20.515197
-20.787360
-21.049183
-21.290846
-21.505605
-21.688860
-21.837584
-21.949974
-22.025212
-22.063309
-22.064973
-22.031511
-21.964726
-21.866831
-21.740352
-21.588030
-21.412728
-21.217330
-21.004653
-20.777368
-20.537932
-20.525483
-20.784758
-21.035900
-21.275917
-21.501132
-21.707237
-21.889404
-22.042467
-22.161147
-22.240296
-22.275147
-22.261545
-22.196159
-22.076676
-21.901975
-21.672319
-21.389569
-21.057471
-20.682081
-20.272447
-19.841765
-19.409410
-19.004324
-18.669144
-18.458312
-18.414398
-18.532877
-18.768350
-19.071295
-19.405495
-19.747173
-20.080680
-20.395375
-20.683819
-20.940748
-21.162486
-21.346579
-21.491574
-21.596859
-21.662554
-21.689415
-21.678759
-21.632384
-21.552499
-21.441636
-21.302570
-21.138225
-20.951589
-20.745618
-20.523155
-20.542058
-20.795161
-21.036181
-21.261135
-21.465404
-21.643864
-21.791078
-21.901532
-21.969875
-21.991160
-21.961061
-21.876065
-21.733634
-21.532359
-21.272102
-20.954153
-20.581433
-20.158766
-19.693303
-19.195223
-18.678958
-18.165472
-17.686387
-17.290049
-17.042019
-16.996088
-17.144710
-17.429108
-17.790191
-18.187636
-18.596032
-18.998895
-19.384971
-19.746243
-20.076864
-20.372550
-20.630229
-20.847817
-21.024072
-21.158494
-21.251241
-21.303065
-21.315253
-21.289561
-21.228157
-21.133547
-21.008500
-20.855968
-20.678999
-20.480651
-20.548588
-20.790016
-21.014181
-21.216214
-21.390759
-21.532176
-21.634776
-21.693064
-21.701964
-21.657027
-21.554603
-21.391991
-21.167557
-20.880859
-20.532760
-20.125567
-19.663219
-19.151547
-18.598695
-18.015820
-17.418357
-16.828463
-16.279770
-15.825406
-15.541726
-15.494576
-15.672756
-16.003248
-16.418185
-16.874135
-17.344663
-17.812789
-18.266832
-18.698319
-19.100891
-19.469710
-19.801116
-20.092410
-20.341727
-20.547933
-20.710564
-20.829763
-20.906237
-20.941208
-20.936363
-20.893798
-20.815965
-20.705598
-20.565641
-20.399171
-20.535185
-20.757745
-20.956859
-21.127009
-21.262419
-21.357290
-21.406036
-21.403503
-21.345164
-21.227279
-21.047030
-20.802623
-20.493389
-20.119873
-19.683931
-19.188858
-18.639557
-18.042790
-17.407579
-16.745899
-16.073949
-15.414679
-14.803032
-14.295792
-13.979244
-13.931628
-14.137532
-14.509508
-14.972182
-15.480107
-16.006425
-16.533970
-17.050822
-17.548161
-18.019198
-18.458592
-18.862128
-19.226520
-19.549284
-19.828658
-20.063540
-20.253442
-20.398455
-20.499204
-20.556821
-20.572894
-20.549430
-20.488799
-20.393676
-20.266972
-20.489557
-20.684766
-20.849729
-20.978604
-21.065544
-21.104929
-21.091577
-21.020927
-20.889194
-20.693488
-20.431912
-20.103639
-19.708987
-19.249488
-18.727976
-18.148694
-17.517450
-16.841849
-16.131677
-15.399556
-14.662194
-13.942931
-13.277293
-12.724442
-12.379138
-12.331681
-12.562080
-12.969110
-13.471601
-14.023222
-14.597254
-15.176646
-15.749411
-16.306503
-16.840777
-17.346447
-17.818785
-18.253938
-18.648825
-19.001059
-19.308899
-19.571214
-19.787451
-19.957610
-20.082211
-20.162268
-20.199256
-20.195071
-20.151983
-20.072584
-20.397911
-20.556574
-20.678036
-20.756467
-20.786269
-20.762284
-20.679964
-20.535523
-20.326046
-20.049581
-19.705209
-19.293099
-18.814566
-18.272124
-17.669560
-17.012021
-16.306160
-15.560334
-14.784964
-13.993141
-13.201820
-12.434321
-11.726025
-11.137063
-10.768581
-10.721678
-10.971765
-11.405571
-11.938201
-12.523548
-13.135543
-13.757524
-14.377608
-14.986636
-15.577192
-16.143108
-16.679184
-17.181037
-17.645005
-18.068089
-18.447912
-18.782695
-19.071232
-19.312868
-19.507484
-19.655472
-19.757713
-19.815550
-19.830750
-19.805468
-20.246028
-20.358854
-20.427804
-20.447363
-20.412448
-20.318575
-20.162001
-19.939836
-19.650123
-19.291907
-18.865282
-18.371432
-17.812671
-17.192485
-16.515584
-15.787980
-15.017096
-14.211948
-13.383452
-12.544983
-11.713478
-10.911836
-10.174595
-9.561384
-9.176954
-9.130667
-9.393873
-9.844330
-10.395758
-11.003280
-11.641919
-12.295640
-12.952821
-13.604308
-14.242506
-14.860929
-15.453963
-16.016730
-16.545017
-17.035229
-17.484366
-17.889999
-18.250262
-18.563836
-18.829936
-19.048304
-19.219185
-19.343310
-19.421874
-19.456506
-20.020269
-20.078397
-20.086615
-20.039973
-19.934103
-19.765358
-19.530917
-19.228875
-18.858293
-18.419256
-17.912895
-17.341421
-16.708148
-16.017515
-15.275128
-14.487804
-13.663665
-12.812272
-11.944892
-11.074987
-10.219222
-9.399715
-8.649534
-8.026377
-7.635107
-7.589100
-7.856963
-8.312168
-8.869552
-9.486308
-10.138885
-10.812066
-11.494634
-12.177554
-12.853148
-13.514695
-14.156227
-14.772423
-15.358557
-15.910467
-16.424543
-16.897717
-17.327463
-17.711791
-18.049240
-18.338876
-18.580279
-18.773531
-18.919203
-19.018329
-19.708350
-19.703742
-19.644107
-19.525249
-19.343670
-19.096677
-18.782462
-18.400166
-17.949921
-17.432877
-16.851227
-16.208213
-15.508140
-14.756380
-13.959387
-13.124719
-12.261096
-11.378502
-10.488393
-9.604125
-8.741855
-7.922622
-7.177547
-6.561112
-6.174170
-6.127789
-6.389988
-6.836442
-7.385691
-7.997623
-8.650312
-9.329491
-10.024463
-10.726423
-11.427713
-12.121467
-12.801442
-13.461942
-14.097778
-14.704261
-15.277200
-15.812908
-16.308208
-16.760439
-17.167459
-17.527645
-17.839890
-18.103601
-18.318683
-18.485533
-19.299869
-19.225582
-19.092258
-18.896608
-18.636119
-18.309145
-17.914958
-17.453801
-16.926908
-16.336528
-15.685920
-14.979359
-14.222119
-13.420463
-12.581627
-11.713820
-10.826240
-9.929142
-9.033996
-8.153860
-7.304185
-6.504735
-5.784392
-5.193369
-4.823913
-4.776496
-5.021257
-5.444210
-5.970322
-6.562599
-7.200802
-7.871660
-8.565079
-9.272583
-9.986636
-10.700331
-11.407247
-12.101393
-12.777190
-13.429479
-14.053534
-14.645081
-15.200315
-15.715916
-16.189063
-16.617438
-16.999239
-17.333172
-17.618456
-17.854810
-18.786631
-18.636989
-18.425548
-18.150041
-17.809040
-17.402013
-16.929374
-16.392508
-15.793785
-15.136563
-14.425172
-13.664895
-12.861936
-12.023378
-11.157147
-10.271973
-9.377377
-8.483708
-7.602264
-6.745621
-5.928385
-5.168962
-4.493887
-3.948205
-3.610708
-3.562175
-3.777320
-4.161380
-4.648846
-5.206241
-5.814964
-6.462712
-7.140018
-7.838808
-8.551766
-9.272052
-9.993174
-10.708950
-11.413505
-12.101290
-12.767109
-13.406153
-14.014028
-14.586784
-15.120933
-15.613474
-16.061899
-16.464210
-16.818914
-17.125031
-18.162842
-17.933557
-17.641063
-17.284211
-16.862731
-16.377274
-15.829439
-15.221790
-14.557851
-13.842088
-13.079881
-12.277477
-11.441932
-10.581045
-9.703291
-8.817753
-7.934087
-7.062529
-6.214014
-5.400488
-4.635639
-3.936536
-3.327316
-2.846735
-2.555283
-2.506789
-2.681731
-3.011945
-3.445259
-3.952510
-4.516731
-5.126493
-5.772920
-6.448369
-7.145820
-7.858598
-8.580258
-9.304545
-10.025399
-10.736984
-11.433729
-12.110364
-12.761970
-13.384010
-13.972367
-14.523372
-15.033826
-15.501022
-15.922751
-16.297312
-17.425245
-17.113520
-16.738609
-16.300563
-15.800338
-15.239817
-14.621826
-13.950125
-13.229393
-12.465182
-11.663871
-10.832584
-9.979113
-9.111820
-8.239541
-7.371501
-6.517265
-5.686747
-4.890345
-4.139273
-3.446300
-2.827185
-2.303289
-1.905055
-1.670512
-1.624642
-1.753214
-2.017099
-2.381620
-2.823827
-3.328796
-3.885941
-4.486894
-5.124410
-5.791790
-6.482607
-7.190564
-7.909456
-8.633170
-9.355708
-10.071237
-10.774136
-11.459043
-12.120910
-12.755045
-13.357152
-13.923370
-14.450295
-14.935003
-15.375069
-16.573242
-16.177876
-15.720855
-15.203501
-14.628051
-13.997663
-13.316409
-12.589249
-11.821989
-11.021211
-10.194197
-9.348821
-8.493438
-7.636766
-6.787771
-5.955575
-5.149415
-4.378686
-3.653115
-2.983145
-2.380614
-1.859689
-1.437560
-1.132962
-0.959928
-0.920026
-1.002901
-1.193618
-1.477318
-1.840635
-2.272204
-2.762625
-3.303999
-3.889390
-4.512389
-5.166840
-5.846677
-6.545858
-7.258346
-7.978127
-8.699245
-9.415854
-10.122272
-10.813037
-11.482967
-12.127206
-12.741275
-13.321108
-13.863088
-14.364070
-15.609044
-15.130560
-14.593534
-14.000621
-13.355380
-12.662271
-11.926612
-11.154535
-10.352909
-9.529246
-8.691585
-7.848362
-7.008273
-6.180137
-5.372781
-4.594963
-3.855368
-3.162704
-2.525945
-1.954710
-1.459656
-1.052245
-0.742509
-0.533987
-0.420225
-0.389553
-0.434032
-0.552843
-0.748478
-1.020978
-1.365922
-1.776337
-2.244897
-2.764801
-3.329793
-3.933948
-4.571471
-5.236582
-5.923454
-6.626206
-7.338922
-8.055688
-8.770647
-9.478058
-10.172359
-10.848231
-11.500652
-12.124954
-12.716866
-13.272553
-14.537862
-13.978668
-13.365707
-12.703015
-11.995506
-11.248939
-10.469853
-9.665484
-8.843658
-8.012659
-7.181085
-6.357694
-5.551245
-4.770362
-4.023431
-3.318565
-2.663652
-2.066546
-1.535408
-1.079116
-0.707172
-0.427139
-0.237753
-0.124509
-0.067628
-0.052718
-0.073779
-0.132272
-0.236108
-0.398273
-0.632455
-0.944933
-1.330876
-1.780931
-2.288306
-2.852421
-3.480768
-4.174130
-4.917857
-5.697617
-6.502239
-7.321803
-8.146870
-8.968318
-9.777379
-10.565743
-11.325676
-12.050119
-12.732784
-13.368215
-13.368215
-12.732784
-12.050119
-11.325676
-10.565743
-9.777379
-8.968318
-8.146870
-7.321803
-6.502239
-5.697617
-4.917857
-4.174130
-3.480768
-2.852421
-2.288306
-1.780931
-1.330876
-0.944933
-0.632455
-0.398273
-0.236108
-0.132272
-0.073779
-0.052718
-0.067628
-0.124509
-0.237753
-0.427139
-0.707172
-1.079116
-1.535408
-2.066546
-2.663652
-3.318565
-4.023431
-4.770362
-5.551245
-6.357694
-7.181085
-8.012659
-8.843658
-9.665484
-10.469853
-11.248939
-11.995506
-12.703015
-13.365707
-13.978668
-14.537862
-13.272553
-12.716866
-12.124954
-11.500652
-10.848231
-10.172359
-9.478058
-8.770647
-8.055688
-7.338922
-6.626206
-5.923454
-5.236582
-4.571471
-3.933948
-3.329793
-2.764801
-2.244897
-1.776337
-1.365922
-1.020978
-0.748478
-0.552843
-0.434032
-0.389553
-0.420225
-0.533987
-0.742509
-1.052245
-1.459656
-1.954710
-2.525945
-3.162704
-3.855368
-4.594963
-5.372781
-6.180137
-7.008273
-7.848362
-8.691585
-9.529246
-10.352909
-11.154535
-11.926612
-12.662271
-13.355380
-14.000621
-14.593534
-15.130560
-15.609044
-14.364070
-13.863088
-13.321108
-12.741275
-12.127206
-11.482967
-10.813037
-10.122272
-9.415854
-8.699245
-7.978127
-7.258346
-6.545858
-5.846677
-5.166840
-4.512389
-3.889390
-3.303999
-2.762625
-2.272204
-1.840635
-1.477318
-1.193618
-1.002901
-0.920026
-0.959928
-1.132962
-1.437560
-1.859689
-2.380614
-2.983145
-3.653115
-4.378686
-5.149415
-5.955575
-6.787771
-7.636766
-8.493438
-9.348821
-10.194197
-11.021211
-11.821989
-12.589249
-13.316409
-13.997663
-14.628051
-15.203501
-15.720855
-16.177876
-16.573242
-15.375069
-14.935003
-14.450295
-13.923370
-13.357152
-12.755045
-12.120910
-11.459043
-10.774136
-10.071237
-9.355708
-8.633170
-7.909456
-7.190564
-6.482607
-5.791790
-5.124410
-4.486894
-3.885941
-3.328796
-2.823827
-2.381620
-2.017099
-1.753214
-1.624642
-1.670512
-1.905055
-2.303289
-2.827185
-3.446300
-4.139273
-4.890345
-5.686747
-6.517265
-7.371501
-8.239541
-9.111820
-9.979113
-10.832584
-11.663871
-12.465182
-13.229393
-13.950125
-14.621826
-15.239817
-15.800338
-16.300563
-16.738609
-17.113520
-17.425245
-16.297312
-15.922751
-15.501022
-15.033826
-14.523372
-13.972367
-13.384010
-12.761970
-12.110364
-11.433729
-10.736984
-10.025399
-9.304545
-8.580258
-7.858598
-7.145820
-6.448369
-5.772920
-5.126493
-4.516731
-3.952510
-3.445259
-3.011945
-2.681731
-2.506789
-2.555283
-2.846735
-3.327316
-3.936536
-4.635639
-5.400488
-6.214014
-7.062529
-7.934087
-8.817753
-9.703291
-10.581045
-11.441932
-12.277477
-13.079881
-13.842088
-14.557851
-15.221790
-15.829439
-16.377274
-16.862731
-17.284211
-17.641063
-17.933557
-18.162842
-17.125031
-16.818914
-16.464210
-16.061899
-15.613474
-15.120933
-14.586784
-14.014028
-13.406153
-12.767109
-12.101290
-11.413505
-10.708950
-9.993174
-9.272052
-8.551766
-7.838808
-7.140018
-6.462712
-5.814964
-5.206241
-4.648846
-4.161380
-3.777320
-3.562175
-3.610708
-3.948205
-4.493887
-5.168962
-5.928385
-6.745621
-7.602264
-8.483708
-9.377377
-10.271973
-11.157147
-12.023378
-12.861936
-13.664895
-14.425172
-15.136563
-15.793785
-16.392508
-16.929374
-17.402013
-17.809040
-18.150041
-18.425548
-18.636989
-18.786631
-17.854810
-17.618456
-17.333172
-16.999239
-16.617438
-16.189063
-15.715916
-15.200315
-14.645081
-14.053534
-13.429479
-12.777190
-12.101393
-11.407247
-10.700331
-9.986636
-9.272583
-8.565079
-7.871660
-7.200802
-6.562599
-5.970322
-5.444210
-5.021257
-4.776496
-4.823913
-5.193369
-5.784392
-6.504735
-7.304185
-8.153860
-9.033996
-9.929142
-10.826240
-11.713820
-12.581627
-13.420463
-14.222119
-14.979359
-15.685920
-16.336528
-16.926908
-17.453801
-17.914958
-18.309145
-18.636119
-18.896608
-19.092258
-19.225582
-19.299869
-18.485533
-18.318683
-18.103601
-17.839890
-17.527645
-17.167459
-16.760439
-16.308208
-15.812908
-15.277200
-14.704261
-14.097778
-13.461942
-12.801442
-12.121467
-11.427713
-10.726423
-10.024463
-9.329491
-8.650312
-7.997623
-7.385691
-6.836442
-6.389988
-6.127789
-6.174170
-6.561112
-7.177547
-7.922622
-8.741855
-9.604125
-10.488393
-11.378502
-12.261096
-13.124719
-13.959387
-14.756380
-15.508140
-16.208213
-16.851227
-17.432877
-17.949921
-18.400166
-18.782462
-19.096677
-19.343670
-19.525249
-19.644107
-19.703742
-19.708350
-19.018329
-18.919203
-18.773531
-18.580279
-18.338876
-18.049240
-17.711791
-17.327463
-16.897717
-16.424543
-15.910467
-15.358557
-14.772423
-14.156227
-13.514695
-12.853148
-12.177554
-11.494634
-10.812066
-10.138885
-9.486308
-8.869552
-8.312168
-7.856963
-7.589100
-7.635107
-8.026377
-8.649534
-9.399715
-10.219222
-11.074987
-11.944892
-12.812272
-13.663665
-14.487804
-15.275128
-16.017515
-16.708148
-17.341421
-17.912895
-18.419256
-18.858293
-19.228875
-19.530917
-19.765358
-19.934103
-20.039973
-20.086615
-20.078397
-20.020269
-19.456506
-19.421874
-19.343310
-19.219185
-19.048304
-18.829936
-18.563836
-18.250262
-17.889999
-17.484366
-17.035229
-16.545017
-16.016730
-15.453963
-14.860929
-14.242506
-13.604308
-12.952821
-12.295640
-11.641919
-11.003280
-10.395758
-9.844330
-9.393873
-9.130667
-9.176954
-9.561384
-10.174595
-10.911836
-11.713478
-12.544983
-13.383452
-14.211948
-15.017096
-15.787980
-16.515584
-17.192485
-17.812671
-18.371432
-18.865282
-19.291907
-19.650123
-19.939836
-20.162001
-20.318575
-20.412448
-20.447363
-20.427804
-20.358854
-20.246028
-19.805468
-19.830750
-19.815550
-19.757713
-19.655472
-19.507484
-19.312868
-19.071232
-18.782695
-18.447912
-18.068089
-17.645005
-17.181037
-16.679184
-16.143108
-15.577192
-14.986636
-14.377608
-13.757524
-13.135543
-12.523548
-11.938201
-11.405571
-10.971765
-10.721678
-10.768581
-11.137063
-11.726025
-12.434321
-13.201820
-13.993141
-14.784964
-15.560334
-16.306160
-17.012021
-17.669560
-18.272124
-18.814566
-19.293099
-19.705209
-20.049581
-20.326046
-20.535523
-20.679964
-20.762284
-20.786269
-20.756467
-20.678036
-20.556574
-20.397911
-20.072584
-20.151983
-20.195071
-20.199256
-20.162268
-20.082211
-19.957610
-19.787451
-19.571214
-19.308899
-19.001059
-18.648825
-18.253938
-17.818785
-17.346447
-16.840777
-16.306503
-15.749411
-15.176646
-14.597254
-14.023222
-13.471601
-12.969110
-12.562080
-12.331681
-12.379138
-12.724442
-13.277293
-13.942931
-14.662194
-15.399556
-16.131677
-16.841849
-17.517450
-18.148694
-18.727976
-19.249488
-19.708987
-20.103639
-20.431912
-20.693488
-20.889194
-21.020927
-21.091577
-21.104929
-21.065544
-20.978604
-20.849729
-20.684766
-20.489557
-20.266972
-20.393676