# vtk DataFile Version 2.0
MyTitle
ASCII
DATASET UNSTRUCTURED_GRID
POINTS 177 double
0.000000 0.000000 0.000000
4.000000 0.000000 0.000000
4.000000 1.000000 0.000000
0.000000 1.000000 0.000000
0.333333 0.000000 0.000000
0.666667 0.000000 0.000000
1.000000 0.000000 0.000000
1.333333 0.000000 0.000000
1.666667 0.000000 0.000000
2.000000 0.000000 0.000000
2.333333 0.000000 0.000000
2.666667 0.000000 0.000000
3.000000 0.000000 0.000000
3.333333 0.000000 0.000000
3.666667 0.000000 0.000000
0.166667 0.000000 0.000000
0.500000 0.000000 0.000000
0.833333 0.000000 0.000000
1.166667 0.000000 0.000000
1.500000 0.000000 0.000000
1.833333 0.000000 0.000000
2.166667 0.000000 0.000000
2.500000 0.000000 0.000000
2.833333 0.000000 0.000000
3.166667 0.000000 0.000000
3.500000 0.000000 0.000000
3.833333 0.000000 0.000000
4.000000 0.250000 0.000000
4.000000 0.500000 0.000000
4.000000 0.750000 0.000000
4.000000 0.125000 0.000000
4.000000 0.375000 0.000000
4.000000 0.625000 0.000000
4.000000 0.875000 0.000000
3.666667 1.000000 0.000000
3.333333 1.000000 0.000000
3.000000 1.000000 0.000000
2.666667 1.000000 0.000000
2.333333 1.000000 0.000000
2.000000 1.000000 0.000000
1.666667 1.000000 0.000000
1.333333 1.000000 0.000000
1.000000 1.000000 0.000000
0.666667 1.000000 0.000000
0.333333 1.000000 0.000000
3.833333 1.000000 0.000000
3.500000 1.000000 0.000000
3.166667 1.000000 0.000000
2.833333 1.000000 0.000000
2.500000 1.000000 0.000000
2.166667 1.000000 0.000000
1.833333 1.000000 0.000000
1.500000 1.000000 0.000000
1.166667 1.000000 0.000000
0.833333 1.000000 0.000000
0.500000 1.000000 0.000000
0.166667 1.000000 0.000000
0.000000 0.750000 0.000000
0.000000 0.500000 0.000000
0.000000 0.250000 0.000000
0.000000 0.875000 0.000000
0.000000 0.625000 0.000000
0.000000 0.375000 0.000000
0.000000 0.125000 0.000000
1.333333 0.500000 0.000000
0.666667 0.500000 0.000000
2.666667 0.500000 0.000000
2.000000 0.500000 0.000000
3.333333 0.500000 0.000000
0.666667 0.250000 0.000000
0.333333 0.500000 0.000000
0.333333 0.250000 0.000000
1.333333 0.250000 0.000000
1.000000 0.500000 0.000000
1.000000 0.250000 0.000000
1.333333 0.750000 0.000000
0.666667 0.750000 0.000000
1.000000 0.750000 0.000000
0.333333 0.750000 0.000000
2.000000 0.250000 0.000000
1.666667 0.500000 0.000000
1.666667 0.250000 0.000000
2.666667 0.250000 0.000000
2.333333 0.500000 0.000000
2.333333 0.250000 0.000000
2.666667 0.750000 0.000000
2.000000 0.750000 0.000000
2.333333 0.750000 0.000000
1.666667 0.750000 0.000000
3.333333 0.250000 0.000000
3.000000 0.500000 0.000000
3.000000 0.250000 0.000000
3.666667 0.500000 0.000000
3.666667 0.250000 0.000000
3.333333 0.750000 0.000000
3.666667 0.750000 0.000000
3.000000 0.750000 0.000000
0.333333 0.125000 0.000000
0.166667 0.250000 0.000000
0.666667 0.125000 0.000000
0.500000 0.250000 0.000000
0.666667 0.375000 0.000000
0.500000 0.500000 0.000000
0.333333 0.375000 0.000000
0.166667 0.500000 0.000000
1.000000 0.125000 0.000000
0.833333 0.250000 0.000000
1.333333 0.125000 0.000000
1.166667 0.250000 0.000000
1.333333 0.375000 0.000000
1.166667 0.500000 0.000000
1.000000 0.375000 0.000000
0.833333 0.500000 0.000000
1.000000 0.625000 0.000000
0.833333 0.750000 0.000000
0.666667 0.625000 0.000000
1.333333 0.625000 0.000000
1.166667 0.750000 0.000000
1.333333 0.875000 0.000000
1.000000 0.875000 0.000000
0.666667 0.875000 0.000000
0.333333 0.625000 0.000000
0.166667 0.750000 0.000000
0.500000 0.750000 0.000000
0.333333 0.875000 0.000000
1.666667 0.125000 0.000000
1.500000 0.250000 0.000000
2.000000 0.125000 0.000000
1.833333 0.250000 0.000000
2.000000 0.375000 0.000000
1.833333 0.500000 0.000000
1.666667 0.375000 0.000000
1.500000 0.500000 0.000000
2.333333 0.125000 0.000000
2.166667 0.250000 0.000000
2.666667 0.125000 0.000000
2.500000 0.250000 0.000000
2.666667 0.375000 0.000000
2.500000 0.500000 0.000000
2.333333 0.375000 0.000000
2.166667 0.500000 0.000000
2.333333 0.625000 0.000000
2.166667 0.750000 0.000000
2.000000 0.625000 0.000000
2.666667 0.625000 0.000000
2.500000 0.750000 0.000000
2.666667 0.875000 0.000000
2.333333 0.875000 0.000000
2.000000 0.875000 0.000000
1.666667 0.625000 0.000000
1.500000 0.750000 0.000000
1.833333 0.750000 0.000000
1.666667 0.875000 0.000000
3.000000 0.125000 0.000000
2.833333 0.250000 0.000000
3.333333 0.125000 0.000000
3.166667 0.250000 0.000000
3.333333 0.375000 0.000000
3.166667 0.500000 0.000000
3.000000 0.375000 0.000000
2.833333 0.500000 0.000000
3.666667 0.125000 0.000000
3.500000 0.250000 0.000000
3.833333 0.250000 0.000000
3.833333 0.500000 0.000000
3.666667 0.375000 0.000000
3.500000 0.500000 0.000000
3.666667 0.625000 0.000000
3.500000 0.750000 0.000000
3.333333 0.625000 0.000000
3.833333 0.750000 0.000000
3.666667 0.875000 0.000000
3.333333 0.875000 0.000000
3.000000 0.625000 0.000000
2.833333 0.750000 0.000000
3.166667 0.750000 0.000000
3.000000 0.875000 0.000000
CELLS 48 432
8 0 4 71 59 15 97 98 63
8 4 5 69 71 16 99 100 97
8 71 69 65 70 100 101 102 103
8 59 71 70 58 98 103 104 62
8 5 6 74 69 17 105 106 99
8 6 7 72 74 18 107 108 105
8 74 72 64 73 108 109 110 111
8 69 74 73 65 106 111 112 101
8 65 73 77 76 112 113 114 115
8 73 64 75 77 110 116 117 113
8 77 75 41 42 117 118 53 119
8 76 77 42 43 114 119 54 120
8 58 70 78 57 104 121 122 61
8 70 65 76 78 102 115 123 121
8 78 76 43 44 123 120 55 124
8 57 78 44 3 122 124 56 60
8 7 8 81 72 19 125 126 107
8 8 9 79 81 20 127 128 125
8 81 79 67 80 128 129 130 131
8 72 81 80 64 126 131 132 109
8 9 10 84 79 21 133 134 127
8 10 11 82 84 22 135 136 133
8 84 82 66 83 136 137 138 139
8 79 84 83 67 134 139 140 129
8 67 83 87 86 140 141 142 143
8 83 66 85 87 138 144 145 141
8 87 85 37 38 145 146 49 147
8 86 87 38 39 142 147 50 148
8 64 80 88 75 132 149 150 116
8 80 67 86 88 130 143 151 149
8 88 86 39 40 151 148 51 152
8 75 88 40 41 150 152 52 118
8 11 12 91 82 23 153 154 135
8 12 13 89 91 24 155 156 153
8 91 89 68 90 156 157 158 159
8 82 91 90 66 154 159 160 137
8 13 14 93 89 25 161 162 155
8 14 1 27 93 26 30 163 161
8 93 27 28 92 163 31 164 165
8 89 93 92 68 162 165 166 157
8 68 92 95 94 166 167 168 169
8 92 28 29 95 164 32 170 167
8 95 29 2 34 170 33 45 171
8 94 95 34 35 168 171 46 172
8 66 90 96 85 160 173 174 144
8 90 68 94 96 158 169 175 173
8 96 94 35 36 175 172 47 176
8 85 96 36 37 174 176 48 146
CELL_TYPES 48
23
23
23
23
23
23
23
23
23
23
23
23
23
23
23
23
23
23
23
23
23
23
23
23
23
23
23
23
23
23
23
23
23
23
23
23
23
23
23
23
23
23
23
23
23
23
23
23
POINT_DATA 177
VECTORS sol double
+0.000000 -12.000000 0
+0.000000 -12.000000 0
+0.000000 -12.000000 0
+0.000000 -12.000000 0
+0.000000 -12.000000 0
+0.000000 -12.000000 0
+0.000000 -12.000000 0
+0.000000 -12.000000 0
+0.000000 -12.000000 0
+0.000000 -12.000000 0
+0.000000 -12.000000 0
+0.000000 -12.000000 0
+0.000000 -12.000000 0
+0.000000 -12.000000 0
+0.000000 -12.000000 0
+0.000000 -12.000000 0
+0.000000 -12.000000 0
+0.000000 -12.000000 0
+0.000000 -12.000000 0
+0.000000 -12.000000 0
+0.000000 -12.000000 0
+0.000000 -12.000000 0
+0.000000 -12.000000 0
+0.000000 -12.000000 0
+0.000000 -12.000000 0
+0.000000 -12.000000 0
+0.000000 -12.000000 0
+0.000000 -12.000000 0
+0.000000 -12.000000 0
+0.000000 -12.000000 0
+0.000000 -12.000000 0
+0.000000 -12.000000 0
+0.000000 -12.000000 0
+0.000000 -12.000000 0
+0.000000 -12.000000 0
+0.000000 -12.000000 0
+0.000000 -12.000000 0
+0.000000 -12.000000 0
+0.000000 -12.000000 0
+0.000000 -12.000000 0
+0.000000 -12.000000 0
+0.000000 -12.000000 0
+0.000000 -12.000000 0
+0.000000 -12.000000 0
+0.000000 -12.000000 0
+0.000000 -12.000000 0
+0.000000 -12.000000 0
+0.000000 -12.000000 0
+0.000000 -12.000000 0
+0.000000 -12.000000 0
+0.000000 -12.000000 0
+0.000000 -12.000000 0
+0.000000 -12.000000 0
+0.000000 -12.000000 0
+0.000000 -12.000000 0
+0.000000 -12.000000 0
+0.000000 -12.000000 0
+0.000000 -12.000000 0
+0.000000 -12.000000 0
+0.000000 -12.000000 0
+0.000000 -12.000000 0
+0.000000 -12.000000 0
+0.000000 -12.000000 0
+0.000000 -12.000000 0
+0.000000 -12.000000 0
+0.000000 -12.000000 0
+0.000000 -12.000000 0
+0.000000 -12.000000 0
+0.000000 -12.000000 0
+0.000000 -12.000000 0
+0.000000 -12.000000 0
+0.000000 -12.000000 0
+0.000000 -12.000000 0
+0.000000 -12.000000 0
+0.000000 -12.000000 0
+0.000000 -12.000000 0
+0.000000 -12.000000 0
+0.000000 -12.000000 0
+0.000000 -12.000000 0
+0.000000 -12.000000 0
+0.000000 -12.000000 0
+0.000000 -12.000000 0
+0.000000 -12.000000 0
+0.000000 -12.000000 0
+0.000000 -12.000000 0
+0.000000 -12.000000 0
+0.000000 -12.000000 0
+0.000000 -12.000000 0
+0.000000 -12.000000 0
+0.000000 -12.000000 0
+0.000000 -12.000000 0
+0.000000 -12.000000 0
+0.000000 -12.000000 0
+0.000000 -12.000000 0
+0.000000 -12.000000 0
+0.000000 -12.000000 0
+0.000000 -12.000000 0
+0.000000 -12.000000 0
+0.000000 -12.000000 0
+0.000000 -12.000000 0
+0.000000 -12.000000 0
+0.000000 -12.000000 0
+0.000000 -12.000000 0
+0.000000 -12.000000 0
+0.000000 -12.000000 0
+0.000000 -12.000000 0
+0.000000 -12.000000 0
+0.000000 -12.000000 0
+0.000000 -12.000000 0
+0.000000 -12.000000 0
+0.000000 -12.000000 0
+0.000000 -12.000000 0
+0.000000 -12.000000 0
+0.000000 -12.000000 0
+0.000000 -12.000000 0
+0.000000 -12.000000 0
+0.000000 -12.000000 0
+0.000000 -12.000000 0
+0.000000 -12.000000 0
+0.000000 -12.000000 0
+0.000000 -12.000000 0
+0.000000 -12.000000 0
+0.000000 -12.000000 0
+0.000000 -12.000000 0
+0.000000 -12.000000 0
+0.000000 -12.000000 0
+0.000000 -12.000000 0
+0.000000 -12.000000 0
+0.000000 -12.000000 0
+0.000000 -12.000000 0
+0.000000 -12.000000 0
+0.000000 -12.000000 0
+0.000000 -12.000000 0
+0.000000 -12.000000 0
+0.000000 -12.000000 0
+0.000000 -12.000000 0
+0.000000 -12.000000 0
+0.000000 -12.000000 0
+0.000000 -12.000000 0
+0.000000 -12.000000 0
+0.000000 -12.000000 0
+0.000000 -12.000000 0
+0.000000 -12.000000 0
+0.000000 -12.000000 0
+0.000000 -12.000000 0
+0.000000 -12.000000 0
+0.000000 -12.000000 0
+0.000000 -12.000000 0
+0.000000 -12.000000 0
+0.000000 -12.000000 0
+0.000000 -12.000000 0
+0.000000 -12.000000 0
+0.000000 -12.000000 0
+0.000000 -12.000000 0
+0.000000 -12.000000 0
+0.000000 -12.000000 0
+0.000000 -12.000000 0
+0.000000 -12.000000 0
+0.000000 -12.000000 0
+0.000000 -12.000000 0
+0.000000 -12.000000 0
+0.000000 -12.000000 0
+0.000000 -12.000000 0
+0.000000 -12.000000 0
+0.000000 -12.000000 0
+0.000000 -12.000000 0
+0.000000 -12.000000 0
+0.000000 -12.000000 0
+0.000000 -12.000000 0
+0.000000 -12.000000 0
+0.000000 -12.000000 0
+0.000000 -12.000000 0
+0.000000 -12.000000 0
+0.000000 -12.000000 0
+0.000000 -12.000000 0
+0.000000 -12.000000 0
+0.000000 -12.000000 0
