# vtk DataFile Version 2.0
MyTitle
ASCII
DATASET UNSTRUCTURED_GRID
POINTS 341 double
-1.000000 -1.000000 0.000000
1.000000 -1.000000 0.000000
1.000000 1.000000 0.000000
-1.000000 1.000000 0.000000
-0.800000 -1.000000 0.000000
-0.600000 -1.000000 0.000000
-0.400000 -1.000000 0.000000
-0.200000 -1.000000 0.000000
-0.000000 -1.000000 0.000000
0.200000 -1.000000 0.000000
0.400000 -1.000000 0.000000
0.600000 -1.000000 0.000000
0.800000 -1.000000 0.000000
-0.900000 -1.000000 0.000000
-0.700000 -1.000000 0.000000
-0.500000 -1.000000 0.000000
-0.300000 -1.000000 0.000000
-0.100000 -1.000000 0.000000
0.100000 -1.000000 0.000000
0.300000 -1.000000 0.000000
0.500000 -1.000000 0.000000
0.700000 -1.000000 0.000000
0.900000 -1.000000 0.000000
1.000000 -0.800000 0.000000
1.000000 -0.600000 0.000000
1.000000 -0.400000 0.000000
1.000000 -0.200000 0.000000
1.000000 -0.000000 0.000000
1.000000 0.200000 0.000000
1.000000 0.400000 0.000000
1.000000 0.600000 0.000000
1.000000 0.800000 0.000000
1.000000 -0.900000 0.000000
1.000000 -0.700000 0.000000
1.000000 -0.500000 0.000000
1.000000 -0.300000 0.000000
1.000000 -0.100000 0.000000
1.000000 0.100000 0.000000
1.000000 0.300000 0.000000
1.000000 0.500000 0.000000
1.000000 0.700000 0.000000
1.000000 0.900000 0.000000
0.800000 1.000000 0.000000
0.600000 1.000000 0.000000
0.400000 1.000000 0.000000
0.200000 1.000000 0.000000
0.000000 1.000000 0.000000
-0.200000 1.000000 0.000000
-0.400000 1.000000 0.000000
-0.600000 1.000000 0.000000
-0.800000 1.000000 0.000000
0.900000 1.000000 0.000000
0.700000 1.000000 0.000000
0.500000 1.000000 0.000000
0.300000 1.000000 0.000000
0.100000 1.000000 0.000000
-0.100000 1.000000 0.000000
-0.300000 1.000000 0.000000
-0.500000 1.000000 0.000000
-0.700000 1.000000 0.000000
-0.900000 1.000000 0.000000
-1.000000 0.800000 0.000000
-1.000000 0.600000 0.000000
-1.000000 0.400000 0.000000
-1.000000 0.200000 0.000000
-1.000000 0.000000 0.000000
-1.000000 -0.200000 0.000000
-1.000000 -0.400000 0.000000
-1.000000 -0.600000 0.000000
-1.000000 -0.800000 0.000000
-1.000000 0.900000 0.000000
-1.000000 0.700000 0.000000
-1.000000 0.500000 0.000000
-1.000000 0.300000 0.000000
-1.000000 0.100000 0.000000
-1.000000 -0.100000 0.000000
-1.000000 -0.300000 0.000000
-1.000000 -0.500000 0.000000
-1.000000 -0.700000 0.000000
-1.000000 -0.900000 0.000000
0.800000 0.800000 0.000000
0.800000 0.600000 0.000000
0.800000 0.400000 0.000000
0.800000 0.200000 0.000000
0.800000 -0.000000 0.000000
0.800000 -0.200000 0.000000
0.800000 -0.400000 0.000000
0.800000 -0.600000 0.000000
0.800000 -0.800000 0.000000
0.600000 0.800000 0.000000
0.600000 0.600000 0.000000
0.600000 0.400000 0.000000
0.600000 0.200000 0.000000
0.600000 -0.000000 0.000000
0.600000 -0.200000 0.000000
0.600000 -0.400000 0.000000
0.600000 -0.600000 0.000000
0.600000 -0.800000 0.000000
0.400000 0.800000 0.000000
0.400000 0.600000 0.000000
0.400000 0.400000 0.000000
0.400000 0.200000 0.000000
0.400000 -0.000000 0.000000
0.400000 -0.200000 0.000000
0.400000 -0.400000 0.000000
0.400000 -0.600000 0.000000
0.400000 -0.800000 0.000000
0.200000 0.800000 0.000000
0.200000 0.600000 0.000000
0.200000 0.400000 0.000000
0.200000 0.200000 0.000000
0.200000 -0.000000 0.000000
0.200000 -0.200000 0.000000
0.200000 -0.400000 0.000000
0.200000 -0.600000 0.000000
0.200000 -0.800000 0.000000
0.000000 0.800000 0.000000
0.000000 0.600000 0.000000
0.000000 0.400000 0.000000
0.000000 0.200000 0.000000
0.000000 0.000000 0.000000
-0.000000 -0.200000 0.000000
-0.000000 -0.400000 0.000000
-0.000000 -0.600000 0.000000
-0.000000 -0.800000 0.000000
-0.200000 0.800000 0.000000
-0.200000 0.600000 0.000000
-0.200000 0.400000 0.000000
-0.200000 0.200000 0.000000
-0.200000 0.000000 0.000000
-0.200000 -0.200000 0.000000
-0.200000 -0.400000 0.000000
-0.200000 -0.600000 0.000000
-0.200000 -0.800000 0.000000
-0.400000 0.800000 0.000000
-0.400000 0.600000 0.000000
-0.400000 0.400000 0.000000
-0.400000 0.200000 0.000000
-0.400000 0.000000 0.000000
-0.400000 -0.200000 0.000000
-0.400000 -0.400000 0.000000
-0.400000 -0.600000 0.000000
-0.400000 -0.800000 0.000000
-0.600000 0.800000 0.000000
-0.600000 0.600000 0.000000
-0.600000 0.400000 0.000000
-0.600000 0.200000 0.000000
-0.600000 0.000000 0.000000
-0.600000 -0.200000 0.000000
-0.600000 -0.400000 0.000000
-0.600000 -0.600000 0.000000
-0.600000 -0.800000 0.000000
-0.800000 0.800000 0.000000
-0.800000 0.600000 0.000000
-0.800000 0.400000 0.000000
-0.800000 0.200000 0.000000
-0.800000 0.000000 0.000000
-0.800000 -0.200000 0.000000
-0.800000 -0.400000 0.000000
-0.800000 -0.600000 0.000000
-0.800000 -0.800000 0.000000
0.800000 0.900000 0.000000
0.900000 0.800000 0.000000
0.800000 0.700000 0.000000
0.900000 0.600000 0.000000
0.800000 0.500000 0.000000
0.900000 0.400000 0.000000
0.800000 0.300000 0.000000
0.900000 0.200000 0.000000
0.800000 0.100000 0.000000
0.900000 -0.000000 0.000000
0.800000 -0.100000 0.000000
0.900000 -0.200000 0.000000
0.800000 -0.300000 0.000000
0.900000 -0.400000 0.000000
0.800000 -0.500000 0.000000
0.900000 -0.600000 0.000000
0.800000 -0.700000 0.000000
0.900000 -0.800000 0.000000
0.800000 -0.900000 0.000000
0.600000 0.900000 0.000000
0.700000 0.800000 0.000000
0.600000 0.700000 0.000000
0.700000 0.600000 0.000000
0.600000 0.500000 0.000000
0.700000 0.400000 0.000000
0.600000 0.300000 0.000000
0.700000 0.200000 0.000000
0.600000 0.100000 0.000000
0.700000 -0.000000 0.000000
0.600000 -0.100000 0.000000
0.700000 -0.200000 0.000000
0.600000 -0.300000 0.000000
0.700000 -0.400000 0.000000
0.600000 -0.500000 0.000000
0.700000 -0.600000 0.000000
0.600000 -0.700000 0.000000
0.700000 -0.800000 0.000000
0.600000 -0.900000 0.000000
0.400000 0.900000 0.000000
0.500000 0.800000 0.000000
0.400000 0.700000 0.000000
0.500000 0.600000 0.000000
0.400000 0.500000 0.000000
0.500000 0.400000 0.000000
0.400000 0.300000 0.000000
0.500000 0.200000 0.000000
0.400000 0.100000 0.000000
0.500000 -0.000000 0.000000
0.400000 -0.100000 0.000000
0.500000 -0.200000 0.000000
0.400000 -0.300000 0.000000
0.500000 -0.400000 0.000000
0.400000 -0.500000 0.000000
0.500000 -0.600000 0.000000
0.400000 -0.700000 0.000000
0.500000 -0.800000 0.000000
0.400000 -0.900000 0.000000
0.200000 0.900000 0.000000
0.300000 0.800000 0.000000
0.200000 0.700000 0.000000
0.300000 0.600000 0.000000
0.200000 0.500000 0.000000
0.300000 0.400000 0.000000
0.200000 0.300000 0.000000
0.300000 0.200000 0.000000
0.200000 0.100000 0.000000
0.300000 -0.000000 0.000000
0.200000 -0.100000 0.000000
0.300000 -0.200000 0.000000
0.200000 -0.300000 0.000000
0.300000 -0.400000 0.000000
0.200000 -0.500000 0.000000
0.300000 -0.600000 0.000000
0.200000 -0.700000 0.000000
0.300000 -0.800000 0.000000
0.200000 -0.900000 0.000000
0.000000 0.900000 0.000000
0.100000 0.800000 0.000000
0.000000 0.700000 0.000000
0.100000 0.600000 0.000000
0.000000 0.500000 0.000000
0.100000 0.400000 0.000000
0.000000 0.300000 0.000000
0.100000 0.200000 0.000000
0.000000 0.100000 0.000000
0.100000 -0.000000 0.000000
-0.000000 -0.100000 0.000000
0.100000 -0.200000 0.000000
-0.000000 -0.300000 0.000000
0.100000 -0.400000 0.000000
-0.000000 -0.500000 0.000000
0.100000 -0.600000 0.000000
-0.000000 -0.700000 0.000000
0.100000 -0.800000 0.000000
-0.000000 -0.900000 0.000000
-0.200000 0.900000 0.000000
-0.100000 0.800000 0.000000
-0.200000 0.700000 0.000000
-0.100000 0.600000 0.000000
-0.200000 0.500000 0.000000
-0.100000 0.400000 0.000000
-0.200000 0.300000 0.000000
-0.100000 0.200000 0.000000
-0.200000 0.100000 0.000000
-0.100000 0.000000 0.000000
-0.200000 -0.100000 0.000000
-0.100000 -0.200000 0.000000
-0.200000 -0.300000 0.000000
-0.100000 -0.400000 0.000000
-0.200000 -0.500000 0.000000
-0.100000 -0.600000 0.000000
-0.200000 -0.700000 0.000000
-0.100000 -0.800000 0.000000
-0.200000 -0.900000 0.000000
-0.400000 0.900000 0.000000
-0.300000 0.800000 0.000000
-0.400000 0.700000 0.000000
-0.300000 0.600000 0.000000
-0.400000 0.500000 0.000000
-0.300000 0.400000 0.000000
-0.400000 0.300000 0.000000
-0.300000 0.200000 0.000000
-0.400000 0.100000 0.000000
-0.300000 0.000000 0.000000
-0.400000 -0.100000 0.000000
-0.300000 -0.200000 0.000000
-0.400000 -0.300000 0.000000
-0.300000 -0.400000 0.000000
-0.400000 -0.500000 0.000000
-0.300000 -0.600000 0.000000
-0.400000 -0.700000 0.000000
-0.300000 -0.800000 0.000000
-0.400000 -0.900000 0.000000
-0.600000 0.900000 0.000000
-0.500000 0.800000 0.000000
-0.600000 0.700000 0.000000
-0.500000 0.600000 0.000000
-0.600000 0.500000 0.000000
-0.500000 0.400000 0.000000
-0.600000 0.300000 0.000000
-0.500000 0.200000 0.000000
-0.600000 0.100000 0.000000
-0.500000 0.000000 0.000000
-0.600000 -0.100000 0.000000
-0.500000 -0.200000 0.000000
-0.600000 -0.300000 0.000000
-0.500000 -0.400000 0.000000
-0.600000 -0.500000 0.000000
-0.500000 -0.600000 0.000000
-0.600000 -0.700000 0.000000
-0.500000 -0.800000 0.000000
-0.600000 -0.900000 0.000000
-0.800000 0.900000 0.000000
-0.700000 0.800000 0.000000
-0.800000 0.700000 0.000000
-0.700000 0.600000 0.000000
-0.800000 0.500000 0.000000
-0.700000 0.400000 0.000000
-0.800000 0.300000 0.000000
-0.700000 0.200000 0.000000
-0.800000 0.100000 0.000000
-0.700000 0.000000 0.000000
-0.800000 -0.100000 0.000000
-0.700000 -0.200000 0.000000
-0.800000 -0.300000 0.000000
-0.700000 -0.400000 0.000000
-0.800000 -0.500000 0.000000
-0.700000 -0.600000 0.000000
-0.800000 -0.700000 0.000000
-0.700000 -0.800000 0.000000
-0.800000 -0.900000 0.000000
-0.900000 0.800000 0.000000
-0.900000 0.600000 0.000000
-0.900000 0.400000 0.000000
-0.900000 0.200000 0.000000
-0.900000 0.000000 0.000000
-0.900000 -0.200000 0.000000
-0.900000 -0.400000 0.000000
-0.900000 -0.600000 0.000000
-0.900000 -0.800000 0.000000
CELLS 100 900
8 2 42 80 31 51 161 162 41
8 31 80 81 30 162 163 164 40
8 30 81 82 29 164 165 166 39
8 29 82 83 28 166 167 168 38
8 28 83 84 27 168 169 170 37
8 27 84 85 26 170 171 172 36
8 26 85 86 25 172 173 174 35
8 25 86 87 24 174 175 176 34
8 24 87 88 23 176 177 178 33
8 23 88 12 1 178 179 22 32
8 42 43 89 80 52 180 181 161
8 80 89 90 81 181 182 183 163
8 81 90 91 82 183 184 185 165
8 82 91 92 83 185 186 187 167
8 83 92 93 84 187 188 189 169
8 84 93 94 85 189 190 191 171
8 85 94 95 86 191 192 193 173
8 86 95 96 87 193 194 195 175
8 87 96 97 88 195 196 197 177
8 88 97 11 12 197 198 21 179
8 43 44 98 89 53 199 200 180
8 89 98 99 90 200 201 202 182
8 90 99 100 91 202 203 204 184
8 91 100 101 92 204 205 206 186
8 92 101 102 93 206 207 208 188
8 93 102 103 94 208 209 210 190
8 94 103 104 95 210 211 212 192
8 95 104 105 96 212 213 214 194
8 96 105 106 97 214 215 216 196
8 97 106 10 11 216 217 20 198
8 44 45 107 98 54 218 219 199
8 98 107 108 99 219 220 221 201
8 99 108 109 100 221 222 223 203
8 100 109 110 101 223 224 225 205
8 101 110 111 102 225 226 227 207
8 102 111 112 103 227 228 229 209
8 103 112 113 104 229 230 231 211
8 104 113 114 105 231 232 233 213
8 105 114 115 106 233 234 235 215
8 106 115 9 10 235 236 19 217
8 45 46 116 107 55 237 238 218
8 107 116 117 108 238 239 240 220
8 108 117 118 109 240 241 242 222
8 109 118 119 110 242 243 244 224
8 110 119 120 111 244 245 246 226
8 111 120 121 112 246 247 248 228
8 112 121 122 113 248 249 250 230
8 113 122 123 114 250 251 252 232
8 114 123 124 115 252 253 254 234
8 115 124 8 9 254 255 18 236
8 46 47 125 116 56 256 257 237
8 116 125 126 117 257 258 259 239
8 117 126 127 118 259 260 261 241
8 118 127 128 119 261 262 263 243
8 119 128 129 120 263 264 265 245
8 120 129 130 121 265 266 267 247
8 121 130 131 122 267 268 269 249
8 122 131 132 123 269 270 271 251
8 123 132 133 124 271 272 273 253
8 124 133 7 8 273 274 17 255
8 47 48 134 125 57 275 276 256
8 125 134 135 126 276 277 278 258
8 126 135 136 127 278 279 280 260
8 127 136 137 128 280 281 282 262
8 128 137 138 129 282 283 284 264
8 129 138 139 130 284 285 286 266
8 130 139 140 131 286 287 288 268
8 131 140 141 132 288 289 290 270
8 132 141 142 133 290 291 292 272
8 133 142 6 7 292 293 16 274
8 48 49 143 134 58 294 295 275
8 134 143 144 135 295 296 297 277
8 135 144 145 136 297 298 299 279
8 136 145 146 137 299 300 301 281
8 137 146 147 138 301 302 303 283
8 138 147 148 139 303 304 305 285
8 139 148 149 140 305 306 307 287
8 140 149 150 141 307 308 309 289
8 141 150 151 142 309 310 311 291
8 142 151 5 6 311 312 15 293
8 49 50 152 143 59 313 314 294
8 143 152 153 144 314 315 316 296
8 144 153 154 145 316 317 318 298
8 145 154 155 146 318 319 320 300
8 146 155 156 147 320 321 322 302
8 147 156 157 148 322 323 324 304
8 148 157 158 149 324 325 326 306
8 149 158 159 150 326 327 328 308
8 150 159 160 151 328 329 330 310
8 151 160 4 5 330 331 14 312
8 50 3 61 152 60 70 332 313
8 152 61 62 153 332 71 333 315
8 153 62 63 154 333 72 334 317
8 154 63 64 155 334 73 335 319
8 155 64 65 156 335 74 336 321
8 156 65 66 157 336 75 337 323
8 157 66 67 158 337 76 338 325
8 158 67 68 159 338 77 339 327
8 159 68 69 160 339 78 340 329
8 160 69 0 4 340 79 13 331
CELL_TYPES 100
23
23
23
23
23
23
23
23
23
23
23
23
23
23
23
23
23
23
23
23
23
23
23
23
23
23
23
23
23
23
23
23
23
23
23
23
23
23
23
23
23
23
23
23
23
23
23
23
23
23
23
23
23
23
23
23
23
23
23
23
23
23
23
23
23
23
23
23
23
23
23
23
23
23
23
23
23
23
23
23
23
23
23
23
23
23
23
23
23
23
23
23
23
23
23
23
23
23
23
23
POINT_DATA 341
VECTORS sol double
+0.000000 +12.000000 0
+0.000000 +12.000000 0
-20.000000 -5.000000 0
+0.000000 +12.000000 0
+0.000000 +12.000000 0
+0.000000 +12.000000 0
+0.000000 +12.000000 0
+0.000000 +12.000000 0
+0.000000 +12.000000 0
+0.000000 +12.000000 0
+0.000000 +12.000000 0
+0.000000 +12.000000 0
+0.000000 +12.000000 0
+0.000000 +12.000000 0
+0.000000 +12.000000 0
+0.000000 +12.000000 0
+0.000000 +12.000000 0
+0.000000 +12.000000 0
+0.000000 +12.000000 0
+0.000000 +12.000000 0
+0.000000 +12.000000 0
+0.000000 +12.000000 0
+0.000000 +12.000000 0
-20.000000 -5.000000 0
-20.000000 -5.000000 0
-20.000000 -5.000000 0
-20.000000 -5.000000 0
-20.000000 -5.000000 0
-20.000000 -5.000000 0
-20.000000 -5.000000 0
-20.000000 -5.000000 0
-20.000000 -5.000000 0
-20.000000 -5.000000 0
-20.000000 -5.000000 0
-20.000000 -5.000000 0
-20.000000 -5.000000 0
-20.000000 -5.000000 0
-20.000000 -5.000000 0
-20.000000 -5.000000 0
-20.000000 -5.000000 0
-20.000000 -5.000000 0
-20.000000 -5.000000 0
+0.000000 +12.000000 0
+0.000000 +12.000000 0
+0.000000 +12.000000 0
+0.000000 +12.000000 0
+0.000000 +12.000000 0
+0.000000 +12.000000 0
+0.000000 +12.000000 0
+0.000000 +12.000000 0
+0.000000 +12.000000 0
+0.000000 +12.000000 0
+0.000000 +12.000000 0
+0.000000 +12.000000 0
+0.000000 +12.000000 0
+0.000000 +12.000000 0
+0.000000 +12.000000 0
+0.000000 +12.000000 0
+0.000000 +12.000000 0
+0.000000 +12.000000 0
+0.000000 +12.000000 0
+9.293333 +21.395332 0
+32.602896 +44.796787 0
+18.997980 +31.264641 0
+0.728611 +13.041894 0
+9.702143 +22.031469 0
+9.369612 +21.682895 0
+8.161479 +20.428139 0
+5.902315 +18.096206 0
+3.096965 +15.198963 0
+4.409616 +16.461254 0
+17.731118 +29.880909 0
+22.011556 +34.244691 0
+10.760178 +23.053730 0
+7.096306 +19.421564 0
+9.807411 +22.132670 0
+8.915926 +21.209478 0
+7.121818 +19.354952 0
+4.553410 +16.703201 0
+1.566289 +13.617927 0
+1.266960 +14.633722 0
+4.139554 +18.205028 0
+7.784371 +22.066932 0
+10.838816 +25.224712 0
+21.770977 +36.185074 0
+21.795677 +36.180371 0
+19.907535 +34.196384 0
+16.562219 +30.589042 0
+10.839258 +24.412480 0
+22.049157 +34.902230 0
+32.255668 +45.634844 0
+38.646261 +52.331539 0
+42.317925 +56.154165 0
+45.553808 +59.435185 0
+43.046062 +56.881956 0
+38.715136 +52.401456 0
+32.316680 +45.698022 0
+23.032084 +35.846503 0
+28.380317 +40.910247 0
+41.147882 +54.102425 0
+48.577920 +61.811530 0
+51.704937 +65.091172 0
+50.761584 +64.196252 0
+35.411052 +48.797400 0
+28.962682 +42.195805 0
+21.521188 +34.476778 0
+12.043221 +24.579447 0
+14.767373 +27.136569 0
+25.759061 +38.439782 0
+32.491972 +45.397737 0
+35.214958 +48.253518 0
+34.205112 +47.287195 0
+29.677110 +42.715673 0
+23.953856 +36.859733 0
+17.219559 +29.899908 0
+9.230394 +21.598340 0
+10.495399 +22.760391 0
+18.887781 +31.384657 0
+24.343717 +37.015912 0
+26.779365 +39.559006 0
+26.251758 +39.067421 0
+23.249250 +36.028889 0
+18.780925 +31.453107 0
+13.309527 +25.806492 0
+6.939950 +19.205154 0
+7.683156 +19.880258 0
+14.070608 +26.442726 0
+18.346565 +30.854181 0
+20.305945 +32.898497 0
+20.138528 +32.759927 0
+18.195092 +30.787646 0
+14.880187 +27.387802 0
+10.544882 +22.916974 0
+5.476942 +17.673997 0
+6.428494 +18.580425 0
+11.638686 +23.926628 0
+14.911447 +27.306005 0
+16.241238 +28.703420 0
+15.998093 +28.483404 0
+14.491264 +26.953445 0
+11.917601 +24.312159 0
+8.472188 +20.760133 0
+4.401067 +16.553005 0
+6.530170 +18.653339 0
+11.566815 +23.800680 0
+13.550946 +25.872135 0
+13.490184 +25.867105 0
+12.996088 +25.392143 0
+11.879230 +24.256151 0
+9.848716 +22.169904 0
+7.044272 +19.278135 0
+3.670671 +15.793837 0
+7.696813 +19.803958 0
+13.504795 +25.708417 0
+13.826134 +26.106090 0
+11.699229 +24.028048 0
+10.957149 +23.302773 0
+10.105878 +22.434697 0
+8.590784 +20.870739 0
+6.189465 +18.393087 0
+3.239628 +15.346773 0
-0.780480 +12.200762 0
-10.028757 +4.224891 0
+3.125823 +16.938762 0
-7.815855 +6.677111 0
+6.676746 +20.875316 0
-6.208397 +8.428107 0
+9.799764 +24.146101 0
-3.940859 +10.747308 0
+15.253414 +29.660982 0
+0.054902 +14.758437 0
+19.245387 +33.652505 0
+0.829991 +15.518777 0
+18.155780 +32.503954 0
-0.126921 +14.505019 0
+15.508856 +29.696389 0
-1.968189 +12.555280 0
+11.123986 +24.992418 0
-3.487850 +10.500899 0
+4.974397 +17.690740 0
+10.201592 +22.618014 0
+10.930748 +23.972308 0
+24.932618 +38.072359 0
+18.055443 +31.733593 0
+32.771976 +46.330384 0
+22.937341 +36.906128 0
+37.621322 +51.397743 0
+27.231737 +41.331616 0
+41.341521 +55.212182 0
+32.423413 +46.562092 0
+41.168054 +55.038504 0
+32.263840 +46.364117 0
+36.883945 +50.661000 0
+29.089183 +43.056169 0
+31.665714 +45.222546 0
+24.180047 +37.860452 0
+24.183865 +37.325863 0
+15.595256 +28.692308 0
+9.823028 +22.269953 0
+12.755100 +25.032328 0
+23.271358 +35.933435 0
+31.628610 +44.390960 0
+36.226264 +49.370376 0
+41.330476 +54.441469 0
+43.155762 +56.597643 0
+46.509845 +59.833993 0
+46.836129 +60.434459 0
+47.885776 +61.308640 0
+46.668429 +60.314921 0
+41.844544 +55.267425 0
+39.872952 +53.471210 0
+32.984092 +46.308146 0
+33.587592 +47.030126 0
+26.354848 +39.466493 0
+26.672303 +39.814841 0
+18.112267 +30.872808 0
+16.380224 +29.031266 0
+6.743186 +19.015846 0
+8.164837 +20.352393 0
+20.217744 +32.656696 0
+21.783303 +34.316825 0
+32.906128 +45.708898 0
+30.571047 +43.375667 0
+40.009976 +53.065961 0
+35.273633 +48.257227 0
+43.038511 +56.238888 0
+36.158014 +49.229303 0
+41.171491 +54.418465 0
+32.594326 +45.665627 0
+33.214661 +46.415045 0
+26.677621 +39.661219 0
+26.277813 +39.333703 0
+20.504177 +33.308725 0
+19.166810 +31.970203 0
+13.177720 +25.711658 0
+10.377960 +22.818735 0
+4.592768 +16.780960 0
+5.284962 +17.419742 0
+12.242452 +24.553699 0
+14.808310 +27.195166 0
+21.868278 +34.447986 0
+21.783062 +34.375521 0
+27.978115 +40.757021 0
+25.723515 +38.458192 0
+30.577958 +43.477009 0
+26.655734 +39.462375 0
+29.840227 +42.779172 0
+24.915366 +37.722007 0
+26.310600 +39.209661 0
+21.205672 +33.940356 0
+21.244383 +34.023306 0
+16.218475 +28.810934 0
+15.127979 +27.707510 0
+10.265863 +22.652606 0
+7.965033 +20.275892 0
+3.529706 +15.664369 0
+3.944518 +16.044454 0
+8.868891 +21.096426 0
+11.133661 +23.422159 0
+16.157920 +28.586332 0
+16.530366 +28.975933 0
+21.009647 +33.592094 0
+19.656616 +32.213427 0
+23.222043 +35.900143 0
+20.516673 +33.130803 0
+22.926662 +35.637068 0
+19.383347 +31.997477 0
+20.547794 +33.225892 0
+16.678427 +29.235236 0
+16.705985 +29.288432 0
+12.809308 +25.254874 0
+11.824003 +24.252448 0
+8.073069 +20.361584 0
+6.145757 +18.373354 0
+2.760116 +14.860068 0
+3.298996 +15.375978 0
+6.894438 +19.066548 0
+9.275150 +21.497967 0
+12.595799 +24.921478 0
+13.562694 +25.908271 0
+16.359545 +28.804995 0
+15.779753 +28.213389 0
+18.042104 +30.563152 0
+16.259485 +28.738948 0
+17.878612 +30.425443 0
+15.380265 +27.859728 0
+16.191023 +28.712072 0
+13.329056 +25.762692 0
+13.280705 +25.726152 0
+10.291810 +22.637385 0
+9.423264 +21.748931 0
+6.499105 +18.721916 0
+4.892274 +17.064369 0
+2.222358 +14.299335 0
+3.331975 +15.394348 0
+6.308941 +18.444699 0
+9.135555 +21.316338 0
+11.275504 +23.533082 0
+12.655451 +24.936449 0
+13.977718 +26.331149 0
+13.722375 +26.075733 0
+14.749559 +27.164013 0
+13.429879 +25.821088 0
+14.379664 +26.815036 0
+12.549329 +24.940538 0
+13.059396 +25.473849 0
+10.964486 +23.317843 0
+10.779945 +23.133375 0
+8.532144 +20.813143 0
+7.683035 +19.940613 0
+5.411472 +17.592255 0
+3.996436 +16.132196 0
+1.853860 +13.916233 0
+3.892497 +15.946744 0
+6.914064 +19.027763 0
+12.110078 +24.267409 0
+11.957404 +24.173407 0
+15.540122 +27.784917 0
+13.401724 +25.698579 0
+12.369296 +24.677440 0
+12.689406 +25.037959 0
+10.563676 +22.905040 0
+11.924360 +24.290680 0
+10.633360 +22.974724 0
+10.891011 +23.239563 0
+9.463578 +21.771722 0
+9.113189 +21.410044 0
+7.477313 +19.722108 0
+6.547308 +18.763310 0
+4.767990 +16.925320 0
+3.418179 +15.531876 0
+1.637816 +13.692063 0
+9.608845 +21.712108 0
+19.944254 +32.140539 0
+15.971924 +28.241858 0
+8.377092 +20.694203 0
+9.487037 +21.820380 0
+9.701688 +22.018799 0
+8.244274 +20.514208 0
+5.979923 +18.176208 0
+3.131442 +15.234706 0
