# vtk DataFile Version 2.0
this shit
ASCII
DATASET POLYDATA
POINTS 92 double
0.000000 0.000000 0.000000
1.000000 0.000000 0.000000
1.000000 1.000000 0.000000
0.000000 1.000000 0.000000
0.125000 0.000000 0.000000
0.250000 0.000000 0.000000
0.375000 0.000000 0.000000
0.500000 0.000000 0.000000
0.625000 0.000000 0.000000
0.750000 0.000000 0.000000
0.875000 0.000000 0.000000
1.000000 0.125000 0.000000
1.000000 0.250000 0.000000
1.000000 0.375000 0.000000
1.000000 0.500000 0.000000
1.000000 0.625000 0.000000
1.000000 0.750000 0.000000
1.000000 0.875000 0.000000
0.875000 1.000000 0.000000
0.750000 1.000000 0.000000
0.625000 1.000000 0.000000
0.500000 1.000000 0.000000
0.375000 1.000000 0.000000
0.250000 1.000000 0.000000
0.125000 1.000000 0.000000
0.000000 0.875000 0.000000
0.000000 0.750000 0.000000
0.000000 0.625000 0.000000
0.000000 0.500000 0.000000
0.000000 0.375000 0.000000
0.000000 0.250000 0.000000
0.000000 0.125000 0.000000
0.629913 0.321921 0.000000
0.326504 0.401846 0.000000
0.699764 0.639715 0.000000
0.803700 0.893202 0.000000
0.108085 0.715300 0.000000
0.090629 0.827408 0.000000
0.901611 0.191289 0.000000
0.455133 0.125919 0.000000
0.876633 0.459586 0.000000
0.506050 0.801935 0.000000
0.402347 0.344648 0.000000
0.671102 0.482198 0.000000
0.729283 0.776870 0.000000
0.529834 0.497191 0.000000
0.409549 0.570100 0.000000
0.683388 0.114841 0.000000
0.606609 0.606060 0.000000
0.402414 0.695213 0.000000
0.289273 0.907457 0.000000
0.236647 0.201114 0.000000
0.810507 0.251966 0.000000
0.885751 0.793581 0.000000
0.222816 0.809333 0.000000
0.636232 0.877911 0.000000
0.120038 0.195679 0.000000
0.765629 0.359024 0.000000
0.531167 0.230140 0.000000
0.569409 0.110718 0.000000
0.187711 0.282231 0.000000
0.179326 0.906580 0.000000
0.807075 0.129215 0.000000
0.622440 0.210620 0.000000
0.796099 0.564441 0.000000
0.211959 0.388982 0.000000
0.717098 0.232496 0.000000
0.303931 0.286912 0.000000
0.888774 0.311581 0.000000
0.483297 0.915373 0.000000
0.270442 0.685665 0.000000
0.426689 0.241312 0.000000
0.364184 0.830711 0.000000
0.508690 0.654741 0.000000
0.119030 0.497374 0.000000
0.272432 0.527959 0.000000
0.150586 0.611642 0.000000
0.501179 0.354455 0.000000
0.324549 0.135274 0.000000
0.411583 0.436163 0.000000
0.078991 0.921798 0.000000
0.918990 0.081630 0.000000
0.805824 0.686152 0.000000
0.338709 0.619735 0.000000
0.614438 0.726205 0.000000
0.191688 0.102422 0.000000
0.091248 0.355609 0.000000
0.093896 0.082468 0.000000
0.585573 0.412582 0.000000
0.774416 0.461686 0.000000
0.912593 0.916535 0.000000
0.909187 0.625537 0.000000
POLYGONS 150 600
3 26 27 36
3 18 19 35
3 48 43 34
3 35 44 53
3 55 19 20
3 35 19 55
3 43 48 45
3 14 40 13
3 7 39 6
3 44 35 55
3 47 8 9
3 22 23 50
3 37 36 54
3 37 25 26
3 36 37 26
3 38 11 12
3 30 31 56
3 43 32 57
3 39 7 59
3 59 58 39
3 23 24 61
3 9 10 62
3 32 58 63
3 34 43 64
3 66 57 32
3 52 57 66
3 32 63 66
3 67 60 51
3 68 13 40
3 41 55 69
3 39 58 71
3 41 49 73
3 74 27 28
3 36 27 76
3 77 58 32
3 78 6 39
3 79 77 45
3 42 77 79
3 80 3 25
3 24 3 80
3 25 37 80
3 10 1 81
3 11 38 81
3 81 1 11
3 82 44 34
3 53 44 82
3 61 24 80
3 61 80 37
3 62 10 81
3 62 81 38
3 76 27 74
3 20 21 69
3 20 69 55
3 77 42 71
3 58 77 71
3 59 47 63
3 59 63 58
3 67 33 65
3 60 67 65
3 54 36 70
3 76 70 36
3 61 50 23
3 61 37 54
3 54 50 61
3 69 21 22
3 41 69 72
3 65 33 75
3 40 57 68
3 68 57 52
3 62 47 9
3 62 38 52
3 71 78 39
3 65 75 74
3 79 33 42
3 79 45 46
3 46 75 79
3 75 33 79
3 8 59 7
3 47 59 8
3 60 56 51
3 82 34 64
3 42 33 67
3 71 42 67
3 51 78 67
3 78 71 67
3 22 50 72
3 22 72 69
3 46 49 83
3 70 75 83
3 83 75 46
3 84 55 41
3 44 55 84
3 84 41 73
3 4 5 85
3 75 70 76
3 76 74 75
3 51 85 78
3 38 68 52
3 68 38 12
3 12 13 68
3 83 49 70
3 45 73 46
3 48 73 45
3 46 73 49
3 66 63 47
3 47 62 66
3 66 62 52
3 51 56 85
3 49 41 72
3 72 70 49
3 54 72 50
3 54 70 72
3 4 85 87
3 87 85 56
3 32 43 88
3 45 77 88
3 88 43 45
3 88 77 32
3 86 29 30
3 65 74 86
3 86 60 65
3 30 56 86
3 86 56 60
3 31 0 87
3 87 56 31
3 87 0 4
3 34 44 84
3 34 84 48
3 73 48 84
3 74 28 29
3 86 74 29
3 89 57 40
3 89 64 43
3 43 57 89
3 40 64 89
3 6 78 5
3 5 78 85
3 16 17 53
3 17 2 90
3 90 2 18
3 90 53 17
3 35 53 90
3 90 18 35
3 16 53 91
3 91 15 16
3 91 53 82
3 40 14 91
3 40 91 64
3 15 91 14
3 91 82 64
POINT_DATA 92
SCALARS solution_0 double
LOOKUP_TABLE defaul
0.000000
0.000000
0.000000
0.000000
0.000000
0.000000
0.000000
0.000000
0.000000
0.000000
0.000000
0.000000
0.000000
0.000000
0.000000
0.000000
0.000000
0.000000
0.000000
0.000000
0.000000
0.000000
0.000000
0.000000
0.000000
0.000000
0.000000
0.000000
0.000000
0.000000
0.000000
0.000000
-1.573091
-1.632779
-1.546427
-0.499892
-0.511291
-0.254296
-0.380133
-0.708666
-0.785081
-1.387699
-1.635335
-1.714215
-1.040176
-2.002127
-1.887581
-0.601457
-1.913905
-1.598206
-0.419601
-0.737862
-0.789870
-0.529682
-0.620210
-0.744098
-0.442383
-1.216057
-1.294694
-0.693026
-0.970440
-0.225998
-0.474575
-1.116968
-1.297321
-1.238695
-1.041340
-1.244276
-0.602548
-0.392608
-1.185268
-1.310230
-0.839487
-1.899517
-0.672141
-1.510660
-0.865192
-1.771804
-0.676167
-1.848581
-0.106586
-0.233582
-1.056172
-1.636256
-1.557307
-0.363805
-0.733415
-0.171098
-1.909095
-1.411206
-0.238669
-0.520019
SCALARS solution_1 double
LOOKUP_TABLE defaul
0.000000
0.000000
0.000000
0.000000
0.000000
0.000000
0.000000
0.000000
0.000000
0.000000
0.000000
0.000000
0.000000
0.000000
0.000000
0.000000
0.000000
0.000000
0.000000
0.000000
0.000000
0.000000
0.000000
0.000000
0.000000
0.000000
0.000000
0.000000
0.000000
0.000000
0.000000
0.000000
0.897710
-2.128854
2.033869
0.871191
-0.708504
-0.382123
0.610222
-0.417883
1.313560
0.375501
-1.665021
1.598185
1.664493
0.180092
-0.953563
0.485821
1.448061
-0.756819
-0.460489
-1.510744
1.147147
1.073739
-0.774058
0.725652
-1.031276
1.532988
-0.002963
0.114960
-1.990869
-0.324440
0.612940
0.670410
2.008203
-2.148836
1.065003
-1.944100
0.970699
0.044040
-1.279734
-1.146183
-0.533860
0.400225
-1.177258
-1.707557
-1.212414
-0.380593
-1.041015
-1.429371
-0.170052
0.350624
1.932838
-1.419466
1.390490
-0.793452
-1.554590
-0.430959
0.678471
1.988593
0.511074
1.035280
SCALARS solution_2 double
LOOKUP_TABLE defaul
0.000000
0.000000
0.000000
0.000000
0.000000
0.000000
0.000000
0.000000
0.000000
0.000000
0.000000
0.000000
0.000000
0.000000
0.000000
0.000000
0.000000
0.000000
0.000000
0.000000
0.000000
0.000000
0.000000
0.000000
0.000000
0.000000
0.000000
0.000000
0.000000
0.000000
0.000000
0.000000
1.727384
0.857788
-0.624157
-0.649065
-1.224288
-0.810577
0.799834
1.298586
0.566353
-2.051077
1.508165
0.567559
-0.994450
-0.087627
-1.373476
1.299680
-0.753866
-2.187717
-1.176175
1.282081
1.406150
-0.428343
-1.632316
-1.104439
0.721886
1.321838
1.923040
1.363466
1.258411
-0.751598
1.046675
1.974650
0.231559
0.753408
1.785321
1.499199
0.877024
-0.806568
-1.809466
1.807171
-1.692580
-1.647000
0.055514
-0.709374
-1.067165
1.363962
1.162359
0.204844
-0.389907
0.578038
-0.451763
-1.852857
-1.543483
0.719949
0.696060
0.340951
1.171852
0.822452
-0.267489
-0.059164
SCALARS solution_3 double
LOOKUP_TABLE defaul
0.000000
0.000000
0.000000
0.000000
0.000000
0.000000
0.000000
0.000000
0.000000
0.000000
0.000000
0.000000
0.000000
0.000000
0.000000
0.000000
0.000000
0.000000
0.000000
0.000000
0.000000
0.000000
0.000000
0.000000
0.000000
0.000000
0.000000
0.000000
0.000000
0.000000
0.000000
0.000000
-1.490353
0.974507
1.732883
1.563827
-1.211772
-0.902929
-0.995245
-0.135613
0.095505
0.125565
0.705561
-0.203262
2.437574
-0.649073
-0.907611
-1.431754
0.435156
-1.119623
-1.082780
2.037712
-1.614730
1.716519
-1.574244
1.047294
1.481925
-1.105342
-1.137012
-1.020842
2.364668
-0.827880
-1.311240
-1.925669
1.073050
1.629003
-1.957868
1.745181
-0.814629
-0.041003
-1.371309
0.470535
-1.015800
-0.194531
0.624684
-0.320238
-0.768446
-0.699014
1.103455
-0.256686
-0.462647
-0.778733
2.351188
-1.215373
1.327423
1.188294
1.698598
0.710059
-1.152146
0.012156
0.965196
1.096654
SCALARS solution_4 double
LOOKUP_TABLE defaul
0.000000
0.000000
0.000000
0.000000
0.000000
0.000000
0.000000
0.000000
0.000000
0.000000
0.000000
0.000000
0.000000
0.000000
0.000000
0.000000
0.000000
0.000000
0.000000
0.000000
0.000000
0.000000
0.000000
0.000000
0.000000
0.000000
0.000000
0.000000
0.000000
0.000000
0.000000
0.000000
0.434374
0.084018
-0.227011
-0.413799
-2.092394
-1.690407
-1.321738
0.672444
-1.717276
1.293587
0.931249
0.095500
-0.559385
2.094679
1.258639
-0.388045
1.664148
0.479939
-1.681290
-0.842008
-1.997627
-1.036819
-2.560734
0.456374
-0.913157
-1.555596
1.107417
0.447585
-1.333609
-1.524635
-1.105082
0.059828
-1.626117
-1.117815
-1.085379
-0.273490
-1.686254
0.102486
-1.631155
0.985101
-0.829795
2.263585
-0.968995
-0.496731
-1.635768
1.680568
-0.026791
1.085866
-0.910301
-0.806668
-1.632414
-0.274826
1.267778
-0.525734
-1.340483
-0.429932
1.608598
-1.715195
-0.512012
-1.270020
SCALARS solution_5 double
LOOKUP_TABLE defaul
0.000000
0.000000
0.000000
0.000000
0.000000
0.000000
0.000000
0.000000
0.000000
0.000000
0.000000
0.000000
0.000000
0.000000
0.000000
0.000000
0.000000
0.000000
0.000000
0.000000
0.000000
0.000000
0.000000
0.000000
0.000000
0.000000
0.000000
0.000000
0.000000
0.000000
0.000000
0.000000
0.624717
-0.942410
0.096903
1.493659
1.428126
1.688563
-0.698857
2.375715
-1.353137
0.929397
0.656514
-1.064402
1.671484
-1.056357
-1.712156
1.302860
-0.756740
-0.382858
1.888953
0.814540
-1.114149
1.034791
2.348918
1.349526
0.020269
-1.376333
2.643955
2.296577
-0.327570
1.667913
-0.022807
2.061831
-1.180028
-1.299335
0.298703
0.573424
-1.329850
0.794343
0.165963
2.241098
1.158336
-0.569752
-1.120885
-1.603058
-0.577889
0.764278
1.414029
-1.278711
1.019913
-0.182662
0.519265
-1.311563
0.796538
0.611207
-0.919327
0.133659
-0.225611
-2.009043
0.815579
-0.052661
SCALARS solution_6 double
LOOKUP_TABLE defaul
0.000000
0.000000
0.000000
0.000000
0.000000
0.000000
0.000000
0.000000
0.000000
0.000000
0.000000
0.000000
0.000000
0.000000
0.000000
0.000000
0.000000
0.000000
0.000000
0.000000
0.000000
0.000000
0.000000
0.000000
0.000000
0.000000
0.000000
0.000000
0.000000
0.000000
0.000000
0.000000
-0.378363
-1.224283
-0.514750
-0.157890
-1.001885
-0.808292
1.917202
-0.544982
-0.550431
2.888055
-1.617029
-0.625089
-0.381854
-0.741840
-0.239430
1.290778
0.731231
1.130638
-0.318036
2.054238
2.510212
-1.244879
-0.879989
1.505157
1.910827
0.692531
-0.928181
-0.006324
2.128676
-0.646802
2.085758
0.715171
-1.675987
0.545599
1.833329
0.271984
1.182826
1.165433
-0.629391
-1.101758
0.769924
1.772644
0.287095
-0.983803
-0.964207
-1.695166
0.492691
-1.841958
-0.456362
1.560338
-2.088247
-0.321440
1.922531
1.468393
1.708478
1.092283
-1.371842
-1.012490
-0.610717
-1.348932
SCALARS solution_7 double
LOOKUP_TABLE defaul
0.000000
0.000000
0.000000
0.000000
0.000000
0.000000
0.000000
0.000000
0.000000
0.000000
0.000000
0.000000
0.000000
0.000000
0.000000
0.000000
0.000000
0.000000
0.000000
0.000000
0.000000
0.000000
0.000000
0.000000
0.000000
0.000000
0.000000
0.000000
0.000000
0.000000
0.000000
0.000000
0.269807
-1.308971
0.762461
-2.258801
1.154795
1.799826
-1.192933
-0.092696
0.787405
0.066558
-0.366755
1.991404
-2.095195
1.042621
-1.012417
-1.833758
2.279417
-0.571384
1.761951
2.096111
-1.278071
-2.097410
2.116015
-1.007650
1.443418
0.634056
-0.573620
-1.133311
1.201600
1.811068
-1.754394
-1.645266
1.370096
-0.754931
-1.510018
0.509556
-0.151475
-0.063754
-0.527156
0.318576
0.509489
0.886935
-0.812579
-1.848828
-1.205568
0.167865
1.102986
-1.294415
1.183079
-1.267535
-1.163068
-1.696031
0.407864
1.565561
0.400775
0.974965
1.441789
2.252351
-1.617482
-0.618273
SCALARS solution_8 double
LOOKUP_TABLE defaul
0.000000
0.000000
0.000000
0.000000
0.000000
0.000000
0.000000
0.000000
0.000000
0.000000
0.000000
0.000000
0.000000
0.000000
0.000000
0.000000
0.000000
0.000000
0.000000
0.000000
0.000000
0.000000
0.000000
0.000000
0.000000
0.000000
0.000000
0.000000
0.000000
0.000000
0.000000
0.000000
1.850846
-1.417267
1.216422
0.111213
0.775240
0.512982
-1.849547
-1.004799
-1.844064
-1.195347
-2.729566
1.131468
0.605034
0.538678
-0.779730
1.761187
1.684931
-1.507954
-0.266520
-0.675179
-2.127945
-0.257169
0.213985
-0.172687
1.220742
-0.952214
0.928390
1.425980
1.527548
0.282096
-0.401928
2.835688
-0.592975
1.540516
0.933975
-1.746019
-2.461172
-0.794647
0.124663
-2.646866
-1.111627
-0.195227
2.212770
0.463064
1.737614
-0.190681
-2.043163
-0.920490
0.292123
-0.820583
-0.161946
-0.717865
0.730887
-0.356812
2.895985
0.498333
1.865140
-0.956169
-0.107417
-0.890183
SCALARS solution_9 double
LOOKUP_TABLE defaul
0.000000
0.000000
0.000000
0.000000
0.000000
0.000000
0.000000
0.000000
0.000000
0.000000
0.000000
0.000000
0.000000
0.000000
0.000000
0.000000
0.000000
0.000000
0.000000
0.000000
0.000000
0.000000
0.000000
0.000000
0.000000
0.000000
0.000000
0.000000
0.000000
0.000000
0.000000
0.000000
-0.255425
2.731023
0.480815
1.041974
1.012216
2.392931
1.859850
-1.746837
-1.335348
-0.522532
2.312698
0.110226
1.151322
0.960430
-1.206014
-0.742388
1.442470
-2.778888
1.331224
-1.611359
2.005957
-0.274815
1.717905
1.046256
-1.387260
0.085643
-1.696080
-2.112163
-0.143030
2.349770
1.426513
-1.626617
-1.867774
1.353018
0.416759
1.015715
0.753495
-0.295566
-1.558619
-0.016236
-1.161985
-0.005609
0.059245
-0.173481
-1.048081
0.880376
-0.976322
1.695894
1.810624
1.516226
-1.283911
-2.803213
1.483762
-1.683748
-0.198028
-1.178338
0.865818
-1.655924
0.185645
-1.411783
