# vtk DataFile Version 2.0
this shit
ASCII
DATASET POLYDATA
POINTS 81 double
0.000000 0.000000 0.000000
1.000000 0.000000 0.000000
1.000000 1.000000 0.000000
0.000000 1.000000 0.000000
0.125000 0.000000 0.000000
0.250000 0.000000 0.000000
0.375000 0.000000 0.000000
0.500000 0.000000 0.000000
0.625000 0.000000 0.000000
0.750000 0.000000 0.000000
0.875000 0.000000 0.000000
1.000000 0.125000 0.000000
1.000000 0.250000 0.000000
1.000000 0.375000 0.000000
1.000000 0.500000 0.000000
1.000000 0.625000 0.000000
1.000000 0.750000 0.000000
1.000000 0.875000 0.000000
0.875000 1.000000 0.000000
0.750000 1.000000 0.000000
0.625000 1.000000 0.000000
0.500000 1.000000 0.000000
0.375000 1.000000 0.000000
0.250000 1.000000 0.000000
0.125000 1.000000 0.000000
0.000000 0.875000 0.000000
0.000000 0.750000 0.000000
0.000000 0.625000 0.000000
0.000000 0.500000 0.000000
0.000000 0.375000 0.000000
0.000000 0.250000 0.000000
0.000000 0.125000 0.000000
0.500000 0.500000 0.000000
0.750000 0.750000 0.000000
0.500000 0.750000 0.000000
0.750000 0.500000 0.000000
0.250000 0.750000 0.000000
0.750000 0.250000 0.000000
0.500000 0.250000 0.000000
0.250000 0.500000 0.000000
0.250000 0.250000 0.000000
0.875000 0.875000 0.000000
0.750000 0.875000 0.000000
0.875000 0.750000 0.000000
0.625000 0.875000 0.000000
0.875000 0.625000 0.000000
0.500000 0.875000 0.000000
0.625000 0.750000 0.000000
0.625000 0.625000 0.000000
0.750000 0.625000 0.000000
0.500000 0.625000 0.000000
0.625000 0.500000 0.000000
0.875000 0.500000 0.000000
0.375000 0.875000 0.000000
0.250000 0.875000 0.000000
0.375000 0.750000 0.000000
0.125000 0.875000 0.000000
0.375000 0.625000 0.000000
0.875000 0.375000 0.000000
0.750000 0.375000 0.000000
0.875000 0.250000 0.000000
0.625000 0.375000 0.000000
0.875000 0.125000 0.000000
0.750000 0.125000 0.000000
0.625000 0.250000 0.000000
0.625000 0.125000 0.000000
0.500000 0.375000 0.000000
0.500000 0.125000 0.000000
0.375000 0.500000 0.000000
0.375000 0.375000 0.000000
0.250000 0.375000 0.000000
0.375000 0.250000 0.000000
0.125000 0.500000 0.000000
0.125000 0.375000 0.000000
0.375000 0.125000 0.000000
0.250000 0.625000 0.000000
0.125000 0.750000 0.000000
0.125000 0.625000 0.000000
0.250000 0.125000 0.000000
0.125000 0.250000 0.000000
0.125000 0.125000 0.000000
POLYGONS 128 512
3 2 18 17
3 18 41 17
3 18 19 41
3 17 41 16
3 19 42 41
3 42 43 41
3 42 33 43
3 41 43 16
3 19 20 42
3 20 44 42
3 20 21 44
3 42 44 33
3 16 43 15
3 43 45 15
3 43 33 45
3 15 45 14
3 21 46 44
3 46 47 44
3 46 34 47
3 44 47 33
3 34 48 47
3 48 49 47
3 48 35 49
3 47 49 33
3 34 50 48
3 50 51 48
3 50 32 51
3 48 51 35
3 33 49 45
3 49 52 45
3 49 35 52
3 45 52 14
3 21 22 46
3 22 53 46
3 22 23 53
3 46 53 34
3 23 54 53
3 54 55 53
3 54 36 55
3 53 55 34
3 23 24 54
3 24 56 54
3 24 3 56
3 54 56 36
3 34 55 50
3 55 57 50
3 55 36 57
3 50 57 32
3 14 52 13
3 52 58 13
3 52 35 58
3 13 58 12
3 35 59 58
3 59 60 58
3 59 37 60
3 58 60 12
3 35 51 59
3 51 61 59
3 51 32 61
3 59 61 37
3 12 60 11
3 60 62 11
3 60 37 62
3 11 62 1
3 1 62 10
3 62 63 10
3 62 37 63
3 10 63 9
3 37 64 63
3 64 65 63
3 64 38 65
3 63 65 9
3 37 61 64
3 61 66 64
3 61 32 66
3 64 66 38
3 9 65 8
3 65 67 8
3 65 38 67
3 8 67 7
3 32 68 66
3 68 69 66
3 68 39 69
3 66 69 38
3 39 70 69
3 70 71 69
3 70 40 71
3 69 71 38
3 39 72 70
3 72 73 70
3 72 28 73
3 70 73 40
3 38 71 67
3 71 74 67
3 71 40 74
3 67 74 7
3 32 57 68
3 57 75 68
3 57 36 75
3 68 75 39
3 36 76 75
3 76 77 75
3 76 26 77
3 75 77 39
3 36 56 76
3 56 25 76
3 56 3 25
3 76 25 26
3 39 77 72
3 77 27 72
3 77 26 27
3 72 27 28
3 7 74 6
3 74 78 6
3 74 40 78
3 6 78 5
3 40 79 78
3 79 80 78
3 79 30 80
3 78 80 5
3 40 73 79
3 73 29 79
3 73 28 29
3 79 29 30
3 5 80 4
3 80 31 4
3 80 30 31
3 4 31 0
POINT_DATA 81
SCALARS solution_0 double
LOOKUP_TABLE defaul
0.000000
0.000000
0.000000
0.000000
0.000000
0.000000
0.000000
0.000000
0.000000
0.000000
0.000000
0.000000
0.000000
0.000000
0.000000
0.000000
0.000000
0.000000
0.000000
0.000000
0.000000
0.000000
0.000000
0.000000
0.000000
0.000000
0.000000
0.000000
0.000000
0.000000
0.000000
0.000000
-2.193423
-0.561905
-1.360338
-1.416294
-1.360655
-1.360655
-1.360338
-1.416294
-0.561905
-0.050481
-0.177695
-0.206716
-0.373932
-0.444887
-0.595092
-0.989403
-1.607173
-1.035875
-1.967710
-1.981083
-0.681905
-0.768050
-0.803241
-1.526191
-0.598843
-1.965272
-0.824619
-1.550595
-0.808789
-1.965272
-0.598843
-0.803241
-1.526191
-0.768050
-1.967710
-0.595092
-1.981083
-1.607173
-1.035875
-0.989403
-0.681905
-0.444887
-0.373932
-1.550595
-0.808789
-0.824619
-0.177695
-0.206716
-0.050481
SCALARS solution_1 double
LOOKUP_TABLE defaul
0.000000
0.000000
0.000000
0.000000
0.000000
0.000000
0.000000
0.000000
0.000000
0.000000
0.000000
0.000000
0.000000
0.000000
0.000000
0.000000
0.000000
0.000000
0.000000
0.000000
0.000000
0.000000
0.000000
0.000000
0.000000
0.000000
0.000000
0.000000
0.000000
0.000000
0.000000
0.000000
0.000000
-1.315018
-2.133026
-1.275747
-1.033246
1.033246
2.133026
1.275747
1.315018
-0.157431
-0.505492
-0.551459
-0.940806
-0.921327
-1.279143
-1.946347
-2.038931
-1.746582
-1.642547
-0.898129
-0.907581
-1.357207
-1.119908
-1.772292
-0.635256
-0.776247
-0.406291
-0.075547
0.284309
0.776247
0.635256
1.119908
1.772292
1.357207
1.642547
1.279143
0.898129
2.038931
1.746582
1.946347
0.907581
0.921327
0.940806
0.075547
-0.284309
0.406291
0.505492
0.551459
0.157431
SCALARS solution_2 double
LOOKUP_TABLE defaul
0.000000
0.000000
0.000000
0.000000
0.000000
0.000000
0.000000
0.000000
0.000000
0.000000
0.000000
0.000000
0.000000
0.000000
0.000000
0.000000
0.000000
0.000000
0.000000
0.000000
0.000000
0.000000
0.000000
0.000000
0.000000
0.000000
0.000000
0.000000
0.000000
0.000000
0.000000
0.000000
1.907215
-2.213196
-1.495003
0.146191
0.771304
0.771304
-1.495003
0.146191
-2.213196
-0.396215
-1.118794
-1.130942
-1.721693
-1.317937
-1.759749
-2.398927
-0.811943
-1.700669
0.642231
1.333253
-0.528450
-1.171237
-0.346732
-0.127576
0.158596
1.549767
0.490233
1.349809
0.706824
1.549767
0.158596
-0.346732
-0.127576
-1.171237
0.642231
-1.759749
1.333253
-0.811943
-1.700669
-2.398927
-0.528450
-1.317937
-1.721693
1.349809
0.706824
0.490233
-1.118794
-1.130942
-0.396215
SCALARS solution_3 double
LOOKUP_TABLE defaul
0.000000
0.000000
0.000000
0.000000
0.000000
0.000000
0.000000
0.000000
0.000000
0.000000
0.000000
0.000000
0.000000
0.000000
0.000000
0.000000
0.000000
0.000000
0.000000
0.000000
0.000000
0.000000
0.000000
0.000000
0.000000
0.000000
0.000000
0.000000
0.000000
0.000000
0.000000
0.000000
-0.000000
-0.877603
0.388664
-1.557326
2.456171
-2.456171
-0.388664
1.557326
0.877603
-0.166847
-0.436972
-0.481818
-0.536945
-0.732795
-0.187908
-0.652616
-0.616705
-1.110684
0.669546
-1.178256
-0.989546
0.597634
1.360976
1.758260
1.366459
1.955783
-1.411956
-2.287023
-1.721362
-1.955783
-1.366459
-1.360976
-1.758260
-0.597634
-0.669546
0.187908
1.178256
0.616705
1.110684
0.652616
0.989546
0.732795
0.536945
2.287023
1.721362
1.411956
0.436972
0.481818
0.166847
SCALARS solution_4 double
LOOKUP_TABLE defaul
0.000000
0.000000
0.000000
0.000000
0.000000
0.000000
0.000000
0.000000
0.000000
0.000000
0.000000
0.000000
0.000000
0.000000
0.000000
0.000000
0.000000
0.000000
0.000000
0.000000
0.000000
0.000000
0.000000
0.000000
0.000000
0.000000
0.000000
0.000000
0.000000
0.000000
0.000000
0.000000
-0.000000
2.506948
-0.250274
-1.961595
-0.394306
0.394306
0.250274
1.961595
-2.506948
0.772754
1.865315
1.707042
2.232435
1.060660
1.462358
1.499710
-1.381192
0.220859
-1.690182
-1.878346
-0.653522
0.249968
-0.405115
-1.014840
-0.278053
-0.258023
-1.247894
-1.275425
-0.372890
0.258023
0.278053
0.405115
1.014840
-0.249968
1.690182
-1.462358
1.878346
1.381192
-0.220859
-1.499710
0.653522
-1.060660
-2.232435
1.275425
0.372890
1.247894
-1.865315
-1.707042
-0.772754
SCALARS solution_5 double
LOOKUP_TABLE defaul
0.000000
0.000000
0.000000
0.000000
0.000000
0.000000
0.000000
0.000000
0.000000
0.000000
0.000000
0.000000
0.000000
0.000000
0.000000
0.000000
0.000000
0.000000
0.000000
0.000000
0.000000
0.000000
0.000000
0.000000
0.000000
0.000000
0.000000
0.000000
0.000000
0.000000
0.000000
0.000000
1.006343
0.690913
-1.366983
2.052485
-1.967969
-1.967969
-1.366983
2.052485
0.690913
0.141864
0.302126
0.445011
0.093119
0.935838
-0.761254
0.057002
0.870841
1.446935
-0.107893
1.481140
1.473449
-1.916704
-2.466741
-2.409130
-1.749001
-0.169468
1.147427
0.765042
-0.500168
-0.169468
-1.749001
-2.466741
-2.409130
-1.916704
-0.107893
-0.761254
1.481140
0.870841
1.446935
0.057002
1.473449
0.935838
0.093119
0.765042
-0.500168
1.147427
0.302126
0.445011
0.141864
SCALARS solution_6 double
LOOKUP_TABLE defaul
0.000000
0.000000
0.000000
0.000000
0.000000
0.000000
0.000000
0.000000
0.000000
0.000000
0.000000
0.000000
0.000000
0.000000
0.000000
0.000000
0.000000
0.000000
0.000000
0.000000
0.000000
0.000000
0.000000
0.000000
0.000000
0.000000
0.000000
0.000000
0.000000
0.000000
0.000000
0.000000
-1.568632
-2.057216
1.729808
1.373100
-1.051571
-1.051571
1.729808
1.373100
-2.057216
-1.354055
-2.698055
-2.219783
-2.210274
-0.358894
-0.330594
0.329336
2.162760
1.415538
0.410790
-0.377355
1.205579
0.830396
0.386796
0.599532
-0.368483
-1.478058
0.094685
-1.191948
-1.006781
-1.478058
-0.368483
0.386796
0.599532
0.830396
0.410790
-0.330594
-0.377355
2.162760
1.415538
0.329336
1.205579
-0.358894
-2.210274
-1.191948
-1.006781
0.094685
-2.698055
-2.219783
-1.354055
SCALARS solution_7 double
LOOKUP_TABLE defaul
0.000000
0.000000
0.000000
0.000000
0.000000
0.000000
0.000000
0.000000
0.000000
0.000000
0.000000
0.000000
0.000000
0.000000
0.000000
0.000000
0.000000
0.000000
0.000000
0.000000
0.000000
0.000000
0.000000
0.000000
0.000000
0.000000
0.000000
0.000000
0.000000
0.000000
0.000000
0.000000
-0.000000
0.757051
-1.690424
1.074597
1.159752
-1.159752
1.690424
-1.074597
-0.757051
0.078597
0.048258
0.564699
-0.694515
1.651197
-2.132684
-0.417407
1.058548
2.147142
0.732817
-0.169566
1.704703
-2.883601
-1.849752
-0.912681
-0.186573
1.844132
-0.442257
-1.996786
-1.580037
-1.844132
0.186573
1.849752
0.912681
2.883601
-0.732817
2.132684
0.169566
-1.058548
-2.147142
0.417407
-1.704703
-1.651197
0.694515
1.996786
1.580037
0.442257
-0.048258
-0.564699
-0.078597
SCALARS solution_8 double
LOOKUP_TABLE defaul
0.000000
0.000000
0.000000
0.000000
0.000000
0.000000
0.000000
0.000000
0.000000
0.000000
0.000000
0.000000
0.000000
0.000000
0.000000
0.000000
0.000000
0.000000
0.000000
0.000000
0.000000
0.000000
0.000000
0.000000
0.000000
0.000000
0.000000
0.000000
0.000000
0.000000
0.000000
0.000000
3.003113
-0.205051
0.983657
-1.303061
-2.079097
-2.079097
0.983657
-1.303061
-0.205051
0.177094
0.332471
-0.022143
0.504363
-0.960516
0.744431
0.285974
0.468765
-1.203016
2.032126
1.378330
-1.696234
0.375794
-1.052651
0.092901
-1.969722
0.963491
-1.983427
-1.489444
-2.387612
0.963491
-1.969722
-1.052651
0.092901
0.375794
2.032126
0.744431
1.378330
0.468765
-1.203016
0.285974
-1.696234
-0.960516
0.504363
-1.489444
-2.387612
-1.983427
0.332471
-0.022143
0.177094
SCALARS solution_9 double
LOOKUP_TABLE defaul
0.000000
0.000000
0.000000
0.000000
0.000000
0.000000
0.000000
0.000000
0.000000
0.000000
0.000000
0.000000
0.000000
0.000000
0.000000
0.000000
0.000000
0.000000
0.000000
0.000000
0.000000
0.000000
0.000000
0.000000
0.000000
0.000000
0.000000
0.000000
0.000000
0.000000
0.000000
0.000000
0.000000
0.663555
-1.500276
0.915427
1.301341
-1.301341
1.500276
-0.915427
-0.663555
2.016827
3.154012
2.288346
1.265013
-0.512509
-1.067029
-2.094305
-0.839145
-1.984502
1.112418
1.803264
-0.495612
-0.776019
0.946474
0.980897
1.225502
0.399037
1.293987
1.510742
0.123826
-0.399037
-1.225502
-0.946474
-0.980897
0.776019
-1.112418
1.067029
-1.803264
0.839145
1.984502
2.094305
0.495612
0.512509
-1.265013
-1.510742
-0.123826
-1.293987
-3.154012
-2.288346
-2.016827
