# vtk DataFile Version 2.0
MyTitle
ASCII
DATASET UNSTRUCTURED_GRID
POINTS 2645 double
0.000000 0.000000 0.000000
1.000000 0.000000 0.000000
1.000000 1.000000 0.000000
0.000000 1.000000 0.000000
0.420000 0.420000 0.000000
0.580000 0.420000 0.000000
0.580000 0.580000 0.000000
0.420000 0.580000 0.000000
0.358579 0.358579 0.000000
0.641421 0.358579 0.000000
0.641421 0.641421 0.000000
0.358579 0.641421 0.000000
2.000000 0.000000 0.000000
2.000000 1.000000 0.000000
1.420000 0.420000 0.000000
1.580000 0.420000 0.000000
1.580000 0.580000 0.000000
1.420000 0.580000 0.000000
1.358579 0.358579 0.000000
1.641421 0.358579 0.000000
1.641421 0.641421 0.000000
1.358579 0.641421 0.000000
3.000000 0.000000 0.000000
3.000000 1.000000 0.000000
2.420000 0.420000 0.000000
2.580000 0.420000 0.000000
2.580000 0.580000 0.000000
2.420000 0.580000 0.000000
2.358579 0.358579 0.000000
2.641421 0.358579 0.000000
2.641421 0.641421 0.000000
2.358579 0.641421 0.000000
4.000000 0.000000 0.000000
4.000000 1.000000 0.000000
3.420000 0.420000 0.000000
3.580000 0.420000 0.000000
3.580000 0.580000 0.000000
3.420000 0.580000 0.000000
3.358579 0.358579 0.000000
3.641421 0.358579 0.000000
3.641421 0.641421 0.000000
3.358579 0.641421 0.000000
5.000000 0.000000 0.000000
5.000000 1.000000 0.000000
4.420000 0.420000 0.000000
4.580000 0.420000 0.000000
4.580000 0.580000 0.000000
4.420000 0.580000 0.000000
4.358579 0.358579 0.000000
4.641421 0.358579 0.000000
4.641421 0.641421 0.000000
4.358579 0.641421 0.000000
1.000000 2.000000 0.000000
0.000000 2.000000 0.000000
0.420000 1.420000 0.000000
0.580000 1.420000 0.000000
0.580000 1.580000 0.000000
0.420000 1.580000 0.000000
0.358579 1.358579 0.000000
0.641421 1.358579 0.000000
0.641421 1.641421 0.000000
0.358579 1.641421 0.000000
2.000000 2.000000 0.000000
1.420000 1.420000 0.000000
1.580000 1.420000 0.000000
1.580000 1.580000 0.000000
1.420000 1.580000 0.000000
1.358579 1.358579 0.000000
1.641421 1.358579 0.000000
1.641421 1.641421 0.000000
1.358579 1.641421 0.000000
3.000000 2.000000 0.000000
2.420000 1.420000 0.000000
2.580000 1.420000 0.000000
2.580000 1.580000 0.000000
2.420000 1.580000 0.000000
2.358579 1.358579 0.000000
2.641421 1.358579 0.000000
2.641421 1.641421 0.000000
2.358579 1.641421 0.000000
4.000000 2.000000 0.000000
3.420000 1.420000 0.000000
3.580000 1.420000 0.000000
3.580000 1.580000 0.000000
3.420000 1.580000 0.000000
3.358579 1.358579 0.000000
3.641421 1.358579 0.000000
3.641421 1.641421 0.000000
3.358579 1.641421 0.000000
5.000000 2.000000 0.000000
4.420000 1.420000 0.000000
4.580000 1.420000 0.000000
4.580000 1.580000 0.000000
4.420000 1.580000 0.000000
4.358579 1.358579 0.000000
4.641421 1.358579 0.000000
4.641421 1.641421 0.000000
4.358579 1.641421 0.000000
1.000000 3.000000 0.000000
0.000000 3.000000 0.000000
0.420000 2.420000 0.000000
0.580000 2.420000 0.000000
0.580000 2.580000 0.000000
0.420000 2.580000 0.000000
0.358579 2.358579 0.000000
0.641421 2.358579 0.000000
0.641421 2.641421 0.000000
0.358579 2.641421 0.000000
2.000000 3.000000 0.000000
1.420000 2.420000 0.000000
1.580000 2.420000 0.000000
1.580000 2.580000 0.000000
1.420000 2.580000 0.000000
1.358579 2.358579 0.000000
1.641421 2.358579 0.000000
1.641421 2.641421 0.000000
1.358579 2.641421 0.000000
3.000000 3.000000 0.000000
4.000000 3.000000 0.000000
3.420000 2.420000 0.000000
3.580000 2.420000 0.000000
3.580000 2.580000 0.000000
3.420000 2.580000 0.000000
3.358579 2.358579 0.000000
3.641421 2.358579 0.000000
3.641421 2.641421 0.000000
3.358579 2.641421 0.000000
5.000000 3.000000 0.000000
4.420000 2.420000 0.000000
4.580000 2.420000 0.000000
4.580000 2.580000 0.000000
4.420000 2.580000 0.000000
4.358579 2.358579 0.000000
4.641421 2.358579 0.000000
4.641421 2.641421 0.000000
4.358579 2.641421 0.000000
1.000000 4.000000 0.000000
0.000000 4.000000 0.000000
0.420000 3.420000 0.000000
0.580000 3.420000 0.000000
0.580000 3.580000 0.000000
0.420000 3.580000 0.000000
0.358579 3.358579 0.000000
0.641421 3.358579 0.000000
0.641421 3.641421 0.000000
0.358579 3.641421 0.000000
2.000000 4.000000 0.000000
1.420000 3.420000 0.000000
1.580000 3.420000 0.000000
1.580000 3.580000 0.000000
1.420000 3.580000 0.000000
1.358579 3.358579 0.000000
1.641421 3.358579 0.000000
1.641421 3.641421 0.000000
1.358579 3.641421 0.000000
3.000000 4.000000 0.000000
2.420000 3.420000 0.000000
2.580000 3.420000 0.000000
2.580000 3.580000 0.000000
2.420000 3.580000 0.000000
2.358579 3.358579 0.000000
2.641421 3.358579 0.000000
2.641421 3.641421 0.000000
2.358579 3.641421 0.000000
4.000000 4.000000 0.000000
3.420000 3.420000 0.000000
3.580000 3.420000 0.000000
3.580000 3.580000 0.000000
3.420000 3.580000 0.000000
3.358579 3.358579 0.000000
3.641421 3.358579 0.000000
3.641421 3.641421 0.000000
3.358579 3.641421 0.000000
5.000000 4.000000 0.000000
4.420000 3.420000 0.000000
4.580000 3.420000 0.000000
4.580000 3.580000 0.000000
4.420000 3.580000 0.000000
4.358579 3.358579 0.000000
4.641421 3.358579 0.000000
4.641421 3.641421 0.000000
4.358579 3.641421 0.000000
1.000000 5.000000 0.000000
0.000000 5.000000 0.000000
0.420000 4.420000 0.000000
0.580000 4.420000 0.000000
0.580000 4.580000 0.000000
0.420000 4.580000 0.000000
0.358579 4.358579 0.000000
0.641421 4.358579 0.000000
0.641421 4.641421 0.000000
0.358579 4.641421 0.000000
2.000000 5.000000 0.000000
1.420000 4.420000 0.000000
1.580000 4.420000 0.000000
1.580000 4.580000 0.000000
1.420000 4.580000 0.000000
1.358579 4.358579 0.000000
1.641421 4.358579 0.000000
1.641421 4.641421 0.000000
1.358579 4.641421 0.000000
3.000000 5.000000 0.000000
2.420000 4.420000 0.000000
2.580000 4.420000 0.000000
2.580000 4.580000 0.000000
2.420000 4.580000 0.000000
2.358579 4.358579 0.000000
2.641421 4.358579 0.000000
2.641421 4.641421 0.000000
2.358579 4.641421 0.000000
4.000000 5.000000 0.000000
3.420000 4.420000 0.000000
3.580000 4.420000 0.000000
3.580000 4.580000 0.000000
3.420000 4.580000 0.000000
3.358579 4.358579 0.000000
3.641421 4.358579 0.000000
3.641421 4.641421 0.000000
3.358579 4.641421 0.000000
5.000000 5.000000 0.000000
4.420000 4.420000 0.000000
4.580000 4.420000 0.000000
4.580000 4.580000 0.000000
4.420000 4.580000 0.000000
4.358579 4.358579 0.000000
4.641421 4.358579 0.000000
4.641421 4.641421 0.000000
4.358579 4.641421 0.000000
0.500000 0.000000 0.000000
0.250000 0.000000 0.000000
0.750000 0.000000 0.000000
1.000000 0.500000 0.000000
1.000000 0.250000 0.000000
1.000000 0.750000 0.000000
0.500000 1.000000 0.000000
0.750000 1.000000 0.000000
0.250000 1.000000 0.000000
0.000000 0.500000 0.000000
0.000000 0.750000 0.000000
0.000000 0.250000 0.000000
0.500000 0.420000 0.000000
0.460000 0.420000 0.000000
0.540000 0.420000 0.000000
0.580000 0.500000 0.000000
0.580000 0.460000 0.000000
0.580000 0.540000 0.000000
0.500000 0.580000 0.000000
0.540000 0.580000 0.000000
0.460000 0.580000 0.000000
0.420000 0.500000 0.000000
0.420000 0.540000 0.000000
0.420000 0.460000 0.000000
0.500000 0.300001 0.000000
0.423464 0.315225 0.000000
0.576536 0.315225 0.000000
0.699999 0.500000 0.000000
0.684775 0.423464 0.000000
0.684775 0.576536 0.000000
0.500000 0.699999 0.000000
0.576536 0.684775 0.000000
0.423464 0.684775 0.000000
0.300001 0.500000 0.000000
0.315225 0.576536 0.000000
0.315225 0.423464 0.000000
0.389290 0.389290 0.000000
0.404645 0.404645 0.000000
0.373934 0.373934 0.000000
0.610710 0.389290 0.000000
0.595355 0.404645 0.000000
0.626066 0.373934 0.000000
0.610710 0.610710 0.000000
0.595355 0.595355 0.000000
0.626066 0.626066 0.000000
0.389290 0.610710 0.000000
0.404645 0.595355 0.000000
0.373934 0.626066 0.000000
0.179290 0.179290 0.000000
0.268934 0.268934 0.000000
0.089645 0.089645 0.000000
0.820710 0.179290 0.000000
0.731066 0.268934 0.000000
0.910355 0.089645 0.000000
0.820710 0.820710 0.000000
0.731066 0.731066 0.000000
0.910355 0.910355 0.000000
0.179290 0.820710 0.000000
0.268934 0.731066 0.000000
0.089645 0.910355 0.000000
1.500000 0.000000 0.000000
1.250000 0.000000 0.000000
1.750000 0.000000 0.000000
2.000000 0.500000 0.000000
2.000000 0.250000 0.000000
2.000000 0.750000 0.000000
1.500000 1.000000 0.000000
1.750000 1.000000 0.000000
1.250000 1.000000 0.000000
1.500000 0.420000 0.000000
1.460000 0.420000 0.000000
1.540000 0.420000 0.000000
1.580000 0.500000 0.000000
1.580000 0.460000 0.000000
1.580000 0.540000 0.000000
1.500000 0.580000 0.000000
1.540000 0.580000 0.000000
1.460000 0.580000 0.000000
1.420000 0.500000 0.000000
1.420000 0.540000 0.000000
1.420000 0.460000 0.000000
1.500000 0.300001 0.000000
1.423464 0.315225 0.000000
1.576536 0.315225 0.000000
1.699999 0.500000 0.000000
1.684775 0.423464 0.000000
1.684775 0.576536 0.000000
1.500000 0.699999 0.000000
1.576536 0.684775 0.000000
1.423464 0.684775 0.000000
1.300001 0.500000 0.000000
1.315225 0.576536 0.000000
1.315225 0.423464 0.000000
1.389290 0.389290 0.000000
1.404645 0.404645 0.000000
1.373934 0.373934 0.000000
1.610710 0.389290 0.000000
1.595355 0.404645 0.000000
1.626066 0.373934 0.000000
1.610710 0.610710 0.000000
1.595355 0.595355 0.000000
1.626066 0.626066 0.000000
1.389290 0.610710 0.000000
1.404645 0.595355 0.000000
1.373934 0.626066 0.000000
1.179290 0.179290 0.000000
1.268934 0.268934 0.000000
1.089645 0.089645 0.000000
1.820710 0.179290 0.000000
1.731066 0.268934 0.000000
1.910355 0.089645 0.000000
1.820710 0.820710 0.000000
1.731066 0.731066 0.000000
1.910355 0.910355 0.000000
1.179290 0.820710 0.000000
1.268934 0.731066 0.000000
1.089645 0.910355 0.000000
2.500000 0.000000 0.000000
2.250000 0.000000 0.000000
2.750000 0.000000 0.000000
3.000000 0.500000 0.000000
3.000000 0.250000 0.000000
3.000000 0.750000 0.000000
2.500000 1.000000 0.000000
2.750000 1.000000 0.000000
2.250000 1.000000 0.000000
2.500000 0.420000 0.000000
2.460000 0.420000 0.000000
2.540000 0.420000 0.000000
2.580000 0.500000 0.000000
2.580000 0.460000 0.000000
2.580000 0.540000 0.000000
2.500000 0.580000 0.000000
2.540000 0.580000 0.000000
2.460000 0.580000 0.000000
2.420000 0.500000 0.000000
2.420000 0.540000 0.000000
2.420000 0.460000 0.000000
2.500000 0.300001 0.000000
[...]
POINT_DATA 2645
VECTORS sol double
+0.000000 +0.000000 0
+0.000000 +0.000000 0
+0.028419 -0.175860 0
+0.000000 +0.000000 0
+0.008341 -0.051614 0
+0.010343 -0.066283 0
+0.013959 -0.086378 0
+0.011186 -0.066943 0
+0.006096 -0.037724 0
+0.009055 -0.059766 0
+0.015713 -0.097232 0
+0.010436 -0.060847 0
+0.000000 +0.000000 0
-0.004008 -0.168539 0
+0.009165 -0.115745 0
+0.006433 -0.115602 0
+0.009215 -0.149721 0
+0.012826 -0.150062 0
+0.008194 -0.095917 0
+0.004085 -0.095766 0
+0.008217 -0.154026 0
+0.014971 -0.154775 0
+0.000000 +0.000000 0
-0.065785 -0.025326 0
-0.021212 -0.071422 0
-0.026118 -0.060049 0
-0.033441 -0.076123 0
-0.026861 -0.091377 0
-0.016120 -0.063475 0
-0.023458 -0.046463 0
-0.037110 -0.071545 0
-0.024733 -0.100237 0
+0.000000 +0.000000 0
-0.071582 +0.055964 0
-0.045950 +0.005834 0
-0.046253 +0.012725 0
-0.060051 +0.018883 0
-0.059592 +0.009789 0
-0.037954 +0.001689 0
-0.038383 +0.012059 0
-0.062094 +0.023878 0
-0.061192 +0.006879 0
+0.000000 +0.000000 0
+0.000000 +0.000000 0
-0.026947 +0.020162 0
-0.021009 +0.016425 0
-0.027282 +0.022235 0
-0.035160 +0.027488 0
-0.024273 +0.017494 0
-0.015355 +0.012005 0
-0.024821 +0.020888 0
-0.039578 +0.030942 0
+0.067515 -0.224456 0
+0.000000 +0.000000 0
+0.031003 -0.132818 0
+0.038978 -0.170508 0
+0.043506 -0.176530 0
+0.034472 -0.137523 0
+0.024920 -0.108994 0
+0.037956 -0.172745 0
+0.046385 -0.183866 0
+0.030160 -0.116152 0
+0.028313 -0.175207 0
+0.046160 -0.285647 0
+0.039345 -0.281678 0
+0.046479 -0.287623 0
+0.053477 -0.292727 0
+0.043291 -0.267895 0
+0.031732 -0.261761 0
+0.043813 -0.271122 0
+0.055924 -0.280674 0
-0.071316 +0.055756 0
-0.037470 -0.141023 0
-0.051969 -0.107413 0
-0.049985 -0.099291 0
-0.034462 -0.135277 0
-0.030994 -0.147810 0
-0.055216 -0.091658 0
-0.052474 -0.076183 0
-0.025168 -0.139483 0
-0.094180 +0.150388 0
-0.114098 +0.074037 0
-0.116270 +0.090901 0
-0.119708 +0.108756 0
-0.117074 +0.091530 0
-0.105594 +0.056593 0
-0.109044 +0.085252 0
-0.115199 +0.116026 0
-0.110358 +0.086279 0
+0.000000 +0.000000 0
-0.070434 +0.083132 0
-0.054923 +0.066375 0
-0.057082 +0.074718 0
-0.073206 +0.094034 0
-0.071220 +0.080348 0
-0.045024 +0.053150 0
-0.048305 +0.065749 0
-0.076344 +0.100648 0
+0.094180 -0.150388 0
+0.000000 +0.000000 0
+0.053769 -0.130043 0
+0.068433 -0.165879 0
+0.071273 -0.157989 0
+0.055886 -0.124161 0
+0.044264 -0.110684 0
+0.068967 -0.173493 0
+0.074309 -0.158654 0
+0.047431 -0.101886 0
+0.071316 -0.055756 0
+0.100477 -0.248872 0
+0.094472 -0.236079 0
+0.101172 -0.217468 0
+0.106735 -0.231489 0
+0.094638 -0.246032 0
+0.084047 -0.224869 0
+0.095832 -0.192130 0
+0.105093 -0.216991 0
-0.028313 +0.175207 0
-0.067515 +0.224456 0
-0.101172 +0.217468 0
-0.106735 +0.231489 0
-0.100477 +0.248872 0
-0.094472 +0.236079 0
-0.095832 +0.192130 0
-0.105093 +0.216991 0
-0.094638 +0.246032 0
-0.084047 +0.224869 0
+0.000000 +0.000000 0
-0.071273 +0.157989 0
-0.055886 +0.124161 0
-0.053769 +0.130043 0
-0.068433 +0.165879 0
-0.074309 +0.158654 0
-0.047431 +0.101886 0
-0.044264 +0.110684 0
-0.068967 +0.173493 0
+0.071582 -0.055964 0
+0.000000 +0.000000 0
+0.057082 -0.074718 0
+0.073206 -0.094034 0
+0.070434 -0.083132 0
+0.054923 -0.066375 0
+0.048305 -0.065749 0
+0.076344 -0.100648 0
+0.071220 -0.080348 0
+0.045024 -0.053150 0
+0.065785 +0.025326 0
+0.119708 -0.108756 0
+0.117074 -0.091530 0
+0.114098 -0.074037 0
+0.116270 -0.090901 0
+0.115199 -0.116026 0
+0.110358 -0.086279 0
+0.105594 -0.056593 0
+0.109044 -0.085252 0
+0.004008 +0.168539 0
+0.049985 +0.099291 0
+0.034462 +0.135277 0
+0.037470 +0.141023 0
+0.051969 +0.107413 0
+0.052474 +0.076183 0
+0.025168 +0.139483 0
+0.030994 +0.147810 0
+0.055216 +0.091658 0
-0.028419 +0.175860 0
-0.046479 +0.287623 0
-0.053477 +0.292727 0
-0.046160 +0.285647 0
-0.039345 +0.281678 0
-0.043813 +0.271122 0
-0.055924 +0.280674 0
-0.043291 +0.267895 0
-0.031732 +0.261761 0
+0.000000 +0.000000 0
-0.043506 +0.176530 0
-0.034472 +0.137523 0
-0.031003 +0.132818 0
-0.038978 +0.170508 0
-0.046385 +0.183866 0
-0.030160 +0.116152 0
-0.024920 +0.108994 0
-0.037956 +0.172745 0
+0.000000 +0.000000 0
+0.000000 +0.000000 0
+0.027282 -0.022235 0
+0.035160 -0.027488 0
+0.026947 -0.020162 0
+0.021009 -0.016425 0
+0.024821 -0.020888 0
+0.039578 -0.030942 0
+0.024273 -0.017494 0
+0.015355 -0.012005 0
+0.000000 +0.000000 0
+0.060051 -0.018883 0
+0.059592 -0.009789 0
+0.045950 -0.005834 0
+0.046253 -0.012725 0
+0.062094 -0.023878 0
+0.061192 -0.006879 0
+0.037954 -0.001689 0
+0.038383 -0.012059 0
+0.000000 +0.000000 0
+0.033441 +0.076123 0
+0.026861 +0.091377 0
+0.021212 +0.071422 0
+0.026118 +0.060049 0
+0.037110 +0.071545 0
+0.024733 +0.100237 0
+0.016120 +0.063475 0
+0.023458 +0.046463 0
+0.000000 +0.000000 0
-0.009215 +0.149721 0
-0.012826 +0.150062 0
-0.009165 +0.115745 0
-0.006433 +0.115602 0
-0.008217 +0.154026 0
-0.014971 +0.154775 0
-0.008194 +0.095917 0
-0.004085 +0.095766 0
+0.000000 +0.000000 0
-0.013959 +0.086378 0
-0.011186 +0.066943 0
-0.008341 +0.051614 0
-0.010343 +0.066283 0
-0.015713 +0.097232 0
-0.010436 +0.060847 0
-0.006096 +0.037724 0
-0.009055 +0.059766 0
+0.000000 +0.000000 0
+0.000000 +0.000000 0
+0.000000 +0.000000 0
+0.013180 -0.101622 0
+0.006501 -0.053083 0
+0.020260 -0.141625 0
+0.020602 -0.107424 0
+0.026272 -0.146325 0
+0.011255 -0.056799 0
+0.000000 +0.000000 0
+0.000000 +0.000000 0
+0.000000 +0.000000 0
+0.009518 -0.059821 0
+0.008970 -0.055914 0
+0.009978 -0.063288 0
+0.012255 -0.077288 0
+0.011322 -0.072000 0
+0.013136 -0.082090 0
+0.012792 -0.077707 0
+0.013433 -0.082322 0
+0.012039 -0.072561 0
+0.009859 -0.060087 0
+0.010549 -0.063735 0
+0.009120 -0.056031 0
+0.006623 -0.042406 0
+0.006196 -0.038975 0
+0.007584 -0.049371 0
+0.012897 -0.084532 0
+0.010911 -0.072218 0
+0.014680 -0.093747 0
+0.014645 -0.085899 0
+0.015755 -0.094588 0
+0.012650 -0.073578 0
+0.007148 -0.042817 0
+0.008487 -0.050077 0
+0.006431 -0.039159 0
+0.007220 -0.044679 0
+0.007777 -0.048129 0
+0.006647 -0.041133 0
+0.009753 -0.063396 0
+0.010063 -0.064945 0
+0.009423 -0.061728 0
+0.014883 -0.092096 0
+0.014428 -0.089285 0
+0.015310 -0.094740 0
+0.010878 -0.064275 0
+0.011052 -0.065718 0
+0.010687 -0.062716 0
+0.001503 -0.009304 0
+0.003453 -0.021367 0
+0.000378 -0.002339 0
+0.004633 -0.034060 0
+0.006867 -0.047563 0
+0.002331 -0.018206 0
+0.021674 -0.134124 0
+0.018486 -0.114396 0
+0.025020 -0.154832 0
+0.006627 -0.035620 0
+0.008742 -0.049029 0
+0.003730 -0.019299 0
+0.000000 +0.000000 0
+0.000000 +0.000000 0
+0.000000 +0.000000 0
-0.005794 -0.101507 0
-0.003438 -0.053509 0
-0.006045 -0.139064 0
+0.021623 -0.206246 0
+0.010732 -0.193688 0
+0.027200 -0.198115 0
+0.007994 -0.117338 0
+0.008631 -0.116954 0
+0.007258 -0.116881 0
+0.007844 -0.134451 0
+0.007141 -0.125429 0
+0.008537 -0.142568 0
+0.011269 -0.151877 0
+0.010299 -0.151286 0
+0.012112 -0.151460 0
+0.011043 -0.134681 0
+0.011949 -0.142850 0
+0.010113 -0.125612 0
+0.005410 -0.083336 0
+0.006584 -0.086852 0
+0.004646 -0.086790 0
+0.004401 -0.124796 0
+0.003968 -0.109333 0
+0.005844 -0.140515 0
+0.013503 -0.167246 0
+0.010995 -0.163626 0
+0.014890 -0.164133 0
+0.012165 -0.125272 0
+0.013959 -0.141235 0
+0.010127 -0.109614 0
+0.008734 -0.106213 0
+0.008965 -0.111067 0
+0.008484 -0.101146 0
+0.005247 -0.106057 0
+0.005832 -0.110915 0
+0.004646 -0.100990 0
+0.008777 -0.152533 0
+0.009014 -0.151281 0
+0.008525 -0.153507 0
+0.013942 -0.153067 0
+0.013391 -0.151714 0
+0.014470 -0.154139 0
+0.004420 -0.042976 0
+0.006379 -0.068039 0
+0.002278 -0.020447 0
-0.000208 -0.043051 0
+0.001489 -0.067988 0
-0.000692 -0.020562 0
+0.003568 -0.164156 0
+0.006132 -0.158658 0
+0.000199 -0.167682 0
+0.021795 -0.167151 0
+0.018245 -0.160340 0
+0.025234 -0.172549 0
+0.000000 +0.000000 0
+0.000000 +0.000000 0
+0.000000 +0.000000 0
-0.039316 -0.023796 0
-0.020691 -0.013513 0
-0.054033 -0.027817 0
-0.037848 -0.105131 0
-0.052744 -0.065440 0
-0.020927 -0.139199 0
-0.023959 -0.066552 0
-0.022651 -0.069205 0
-0.025118 -0.063486 0
-0.030214 -0.069186 0
-0.028265 -0.064866 0
-0.031943 -0.072948 0
-0.030492 -0.084699 0
-0.032058 -0.080627 0
-0.028753 -0.088290 0
-0.024429 -0.082597 0
-0.025750 -0.087306 0
-0.022909 -0.077281 0
-0.017167 -0.047685 0
-0.016169 -0.053717 0
-0.019625 -0.045706 0
-0.032657 -0.055072 0
-0.028102 -0.049943 0
-0.035974 -0.062316 0
-0.032962 -0.091560 0
-0.036054 -0.081839 0
-0.028868 -0.098498 0
-0.018669 -0.087498 0
-0.021213 -0.096534 0
-0.017067 -0.075523 0
-0.018685 -0.067812 0
-0.019946 -0.069718 0
-0.017385 -0.065780 0
-0.024929 -0.053335 0
-0.025564 -0.056696 0
-0.024249 -0.049868 0
-0.035387 -0.074234 0
-0.034432 -0.075287 0
-0.036275 -0.073043 0
-0.025944 -0.096125 0
-0.026443 -0.093807 0
-0.025396 -0.098262 0
-0.005191 -0.035088 0
-0.009955 -0.049698 0
-0.001945 -0.018560 0
-0.013303 -0.016283 0
-0.018607 -0.029640 0
-0.007109 -0.006590 0
-0.050048 -0.052342 0
-0.043030 -0.062418 0
-0.057702 -0.040015 0
-0.016030 -0.131203 0
-0.020617 -0.114375 0
-0.010502 -0.149436 0
+0.000000 +0.000000 0
+0.000000 +0.000000 0
+0.000000 +0.000000 0
-0.041072 +0.024146 0
-0.021420 +0.011644 0
-0.057410 +0.038431 0
-0.082895 +0.036050 0
-0.080207 +0.050878 0
-0.076984 +0.009659 0
-0.046772 +0.009622 0
-0.046527 +0.007804 0
-0.046679 +0.011267 0
-0.053854 +0.015765 0
-0.050211 +0.014233 0
-0.057142 +0.017317 0
-0.060623 +0.014785 0
-0.060535 +0.016954 0
-0.060304 +0.012387 0
-0.053475 +0.007700 0
-0.056723 +0.008719 0
-0.049871 +0.006738 0
-0.033195 +0.006158 0
-0.034481 +0.003916 0
-0.034681 +0.008809 0
-0.050262 +0.019449 0
-0.043933 +0.015709 0
-0.056689 +0.022544 0
-0.066857 +0.019044 0
-0.065760 +0.022831 0
-0.065210 +0.013032 0
-0.049376 -0.000131 0
-0.055675 +0.002100 0
-0.043268 +0.000171 0
-0.042097 +0.003696 0
-0.044057 +0.004739 0
-0.040054 +0.002637 0
-0.042473 +0.012495 0
-0.044399 +0.012641 0
-0.040462 +0.012321 0
-0.061331 +0.021434 0
-0.060751 +0.020163 0
-0.061800 +0.022671 0
-0.060656 +0.008427 0
-0.060186 +0.009140 0
-0.061016 +0.007703 0
-0.016878 -0.004407 0
-0.026818 -0.002367 0
-0.008008 -0.003604 0
-0.017265 +0.007296 0
-0.027278 +0.009987 0
-0.008230 +0.003913 0
-0.067567 +0.040009 0
-0.064574 +0.031651 0
-0.069996 +0.048215 0
-0.064748 -0.005785 0
-0.062821 +0.001191 0
-0.065828 -0.014616 0
+0.000000 +0.000000 0
+0.000000 +0.000000 0
+0.000000 +0.000000 0
+0.000000 +0.000000 0
+0.000000 +0.000000 0
+0.000000 +0.000000 0
-0.044018 +0.042379 0
-0.023307 +0.023323 0
-0.059797 +0.053203 0
-0.024336 +0.018661 0
-0.025738 +0.019509 0
-0.022753 +0.017627 0
-0.024471 +0.019497 0
-0.022813 +0.017997 0
-0.025965 +0.020913 0
-0.031651 +0.025321 0
-0.029564 +0.023883 0
-0.033520 +0.026525 0
-0.031438 +0.024003 0
-0.033402 +0.025796 0
-0.029279 +0.022121 0
-0.017240 +0.012915 0
-0.020060 +0.014714 0
-0.015855 +0.012144 0
-0.017449 +0.014205 0
-0.015949 +0.012721 0
-0.020419 +0.016933 0
-0.035033 +0.029266 0
-0.030018 +0.025334 0
-0.038544 +0.031288 0
-0.034339 +0.024971 0
-0.038117 +0.028646 0
-0.029327 +0.021062 0
-0.025760 +0.018932 0
-0.026396 +0.019576 0
-0.025076 +0.018248 0
-0.018186 +0.014218 0
-0.019590 +0.015316 0
-0.016743 +0.013090 0
-0.026207 +0.021696 0
-0.026789 +0.022005 0
-0.025578 +0.021354 0
-0.037487 +0.029308 0
-0.036343 +0.028413 0
-0.038563 +0.030149 0
-0.013785 +0.008637 0
-0.019286 +0.013066 0
-0.007355 +0.004250 0
-0.003787 +0.002961 0
-0.008697 +0.006799 0
-0.000952 +0.000744 0
-0.014577 +0.013537 0
-0.020031 +0.017672 0
-0.007911 +0.007685 0
-0.054594 +0.042682 0
-0.046564 +0.036404 0
-0.063023 +0.049272 0
+0.048420 -0.227196 0
+0.038222 -0.206732 0
+0.057815 -0.230498 0
+0.045021 -0.141234 0
+0.059238 -0.190104 0
+0.024227 -0.075137 0
+0.000000 +0.000000 0
+0.000000 +0.000000 0
+0.000000 +0.000000 0
+0.035586 -0.153869 0
+0.033430 -0.143841 0
+0.037440 -0.162780 0
+0.041656 -0.175634 0
+0.040414 -0.173586 0
+0.042688 -0.176608 0
+0.039626 -0.159299 0
+0.041735 -0.168522 0
+0.037193 -0.148924 0
+0.033102 -0.136967 0
+0.033881 -0.137695 0
+0.032138 -0.135332 0
+0.030659 -0.139731 0
+0.027494 -0.123192 0
+0.034251 -0.157100 0
+0.044462 -0.191450 0
+0.041522 -0.184954 0
+0.046356 -0.191272 0
+0.040493 -0.153013 0
+0.044447 -0.170695 0
+0.035330 -0.133851 0
+0.023854 -0.097756 0
+0.026117 -0.103576 0
+0.023641 -0.100187 0
+0.028032 -0.121301 0
+0.029530 -0.127145 0
+0.026479 -0.115215 0
+0.038650 -0.172384 0
+0.038860 -0.171626 0
+0.038366 -0.172821 0
+0.045112 -0.180941 0
+0.044343 -0.178901 0
+0.045797 -0.182647 0
+0.032470 -0.127341 0
+0.033512 -0.132555 0
+0.031369 -0.121882 0
+0.010199 -0.047494 0
+0.016945 -0.076299 0
+0.004628 -0.022284 0
+0.033737 -0.176487 0
+0.035793 -0.174059 0
+0.031299 -0.177291 0
+0.056127 -0.205247 0
+0.050787 -0.193570 0
+0.061774 -0.215823 0
+0.016194 -0.055875 0
+0.023231 -0.084986 0
+0.008499 -0.027748 0
+0.007372 -0.202846 0
+0.000453 -0.192007 0
+0.016782 -0.194695 0
+0.065535 -0.248318 0
+0.050389 -0.220970 0
+0.070446 -0.246729 0
+0.043553 -0.287677 0
+0.045063 -0.287660 0
+0.041639 -0.285661 0
+0.043306 -0.288382 0
+0.041415 -0.285945 0
+0.044998 -0.288929 0
+0.050851 -0.294281 0
+0.048872 -0.291957 0
+0.052388 -0.294524 0
+0.050271 -0.292929 0
+0.051994 -0.293757 0
+0.048319 -0.290205 0
+0.036122 -0.263356 0
+0.039563 -0.265501 0
+0.033403 -0.262463 0
+0.033970 -0.264012 0
+0.031881 -0.262626 0
+0.038292 -0.267208 0
+0.053872 -0.279572 0
+0.049482 -0.275957 0
+0.056052 -0.281523 0
+0.050855 -0.274874 0
+0.054030 -0.278590 0
+0.047212 -0.271480 0
+0.044908 -0.277897 0
+0.045576 -0.282035 0
+0.044153 -0.273228 0
+0.035658 -0.272762 0
+0.037528 -0.277456 0
+0.033716 -0.267548 0
+0.045333 -0.280529 0
+0.045950 -0.284350 0
+0.044631 -0.276183 0
+0.054933 -0.287832 0
+0.054259 -0.290537 0
+0.055508 -0.284585 0
+0.035356 -0.218789 0
+0.038994 -0.241304 0
+0.031890 -0.197340 0
+0.011765 -0.209995 0
+0.021188 -0.233353 0
+0.003426 -0.188825 0
+0.036087 -0.223312 0
+0.039695 -0.245641 0
+0.032363 -0.200270 0
+0.062516 -0.249672 0
+0.059009 -0.262922 0
+0.065435 -0.237304 0
-0.080275 +0.000341 0
-0.075398 -0.016169 0
-0.077925 +0.024856 0
-0.023247 -0.064573 0
-0.048280 -0.003559 0
+0.002957 -0.122336 0
-0.045242 -0.125669 0
-0.041466 -0.133748 0
-0.048753 -0.116855 0
-0.051701 -0.105080 0
-0.052016 -0.106683 0
-0.051018 -0.102604 0
-0.042727 -0.118683 0
-0.046500 -0.109288 0
-0.038699 -0.127371 0
-0.036579 -0.140135 0
-0.035669 -0.138187 0
-0.037180 -0.141077 0
-0.043531 -0.120918 0
-0.037097 -0.135570 0
-0.049862 -0.105978 0
-0.059744 -0.072790 0
-0.058784 -0.080294 0
-0.057612 -0.071229 0
-0.037450 -0.104025 0
-0.045397 -0.087759 0
-0.030349 -0.122642 0
-0.023181 -0.157552 0
-0.022760 -0.152024 0
-0.026213 -0.155803 0
-0.034329 -0.145102 0
-0.035918 -0.143229 0
-0.032673 -0.146705 0
-0.053852 -0.099842 0
-0.052974 -0.103690 0
-0.054631 -0.095801 0
-0.051422 -0.088103 0
-0.050743 -0.093794 0
-0.052004 -0.082242 0
-0.029941 -0.137900 0
-0.032236 -0.136697 0
-0.027588 -0.138842 0
-0.015176 -0.162205 0
-0.022426 -0.154995 0
-0.009121 -0.166848 0
-0.062292 -0.052980 0
-0.058809 -0.070653 0
-0.064660 -0.038095 0
-0.061071 -0.009194 0
-0.056270 -0.042146 0
-0.066169 +0.023306 0
+0.001898 -0.155172 0
-0.011467 -0.146009 0
+0.015113 -0.165124 0
-0.093533 +0.101884 0
-0.084582 +0.077956 0
-0.095677 +0.125330 0
-0.103366 +0.143233 0
-0.103186 +0.155787 0
-0.091267 +0.107421 0
-0.116832 +0.084131 0
-0.115868 +0.079474 0
-0.116961 +0.087947 0
-0.119499 +0.100635 0
-0.118254 +0.095947 0
-0.119979 +0.104914 0
-0.120081 +0.101978 0
-0.120315 +0.105839 0
-0.118991 +0.097185 0
-0.117086 +0.083442 0
-0.117453 +0.087670 0
-0.115959 +0.078883 0
-0.106616 +0.067542 0
-0.106021 +0.060751 0
-0.107768 +0.076046 0
-0.112465 +0.103738 0
-0.110805 +0.094837 0
-0.114210 +0.111428 0
-0.114581 +0.110940 0
-0.115543 +0.116272 0
-0.112766 +0.100171 0
-0.106680 +0.062044 0
-0.108324 +0.072680 0
-0.105947 +0.056892 0
-0.110266 +0.065521 0
-0.112277 +0.069825 0
-0.108045 +0.061084 0
-0.113115 +0.088435 0
-0.114800 +0.089752 0
-0.111215 +0.086949 0
-0.117919 +0.112877 0
-0.118919 +0.110927 0
-0.116696 +0.114621 0
-0.114187 +0.089272 0
-0.115742 +0.090488 0
-0.112418 +0.087890 0
-0.083477 +0.010799 0
-0.093494 +0.032506 0
-0.074417 -0.008367 0
-0.089056 +0.069625 0
-0.098220 +0.076790 0
-0.080325 +0.062799 0
-0.103626 +0.135480 0
-0.108510 +0.125423 0
-0.099035 +0.143974 0
-0.090897 +0.071065 0
-0.099986 +0.078170 0
-0.081518 +0.063732 0
+0.000000 +0.000000 0
+0.000000 +0.000000 0
+0.000000 +0.000000 0
-0.059490 +0.101044 0
-0.031674 +0.054452 0
-0.079951 +0.132568 0
-0.063598 +0.076060 0
-0.067262 +0.079943 0
-0.059468 +0.071515 0
-0.056740 +0.071306 0
-0.056012 +0.069018 0
-0.057096 +0.073210 0
-0.066093 +0.085780 0
-0.061802 +0.080569 0
-0.069903 +0.090278 0
-0.072687 +0.089438 0
-0.073163 +0.091958 0
-0.071772 +0.086485 0
-0.057605 +0.064883 0
-0.064745 +0.072395 0
-0.050828 +0.058376 0
-0.040517 +0.051471 0
-0.041452 +0.050713 0
-0.043005 +0.056664 0
-0.063704 +0.088538 0
-0.055718 +0.077218 0
-0.071000 +0.096936 0
-0.079148 +0.095103 0
-0.079248 +0.099907 0
-0.076333 +0.088259 0
-0.071141 +0.082135 0
-0.070862 +0.082733 0
-0.071287 +0.081377 0
-0.050134 +0.059907 0
-0.052563 +0.063165 0
-0.047606 +0.056531 0
-0.052905 +0.070578 0
-0.055046 +0.072741 0
-0.050664 +0.068288 0
-0.075081 +0.097694 0
-0.074212 +0.095933 0
-0.075813 +0.099271 0
-0.072308 +0.069347 0
-0.071540 +0.074764 0
-0.072403 +0.063114 0
-0.019560 +0.021494 0
-0.031473 +0.035946 0
-0.009163 +0.009686 0
-0.023389 +0.035889 0
-0.035449 +0.051047 0
-0.011657 +0.018978 0
-0.085614 +0.123340 0
-0.080550 +0.110898 0
-0.090274 +0.136659 0
+0.087685 -0.203274 0
+0.078474 -0.216913 0
+0.092208 -0.178766 0
+0.059490 -0.101044 0
+0.079951 -0.132568 0
+0.031674 -0.054452 0
+0.000000 +0.000000 0
+0.000000 +0.000000 0
+0.000000 +0.000000 0
+0.062049 -0.150207 0
+0.058124 -0.140633 0
+0.065494 -0.158642 0
+0.070644 -0.163768 0
+0.069730 -0.165285 0
+0.071157 -0.161322 0
+0.064547 -0.143271 0
+0.068168 -0.151216 0
+0.060435 -0.134213 0
+0.055508 -0.128680 0
+0.055869 -0.126803 0
+0.054804 -0.129761 0
+0.056437 -0.146217 0
+0.049942 -0.127911 0
+0.063060 -0.162420 0
+0.076366 -0.177034 0
+0.073655 -0.178652 0
+0.076757 -0.170036 0
+0.062474 -0.129446 0
+0.069431 -0.144723 0
+0.054705 -0.114682 0
+0.039772 -0.092201 0
+0.042208 -0.094048 0
+0.040717 -0.098191 0
+0.049174 -0.120865 0
+0.051506 -0.125580 0
+0.046748 -0.115920 0
+0.069007 -0.170359 0
+0.068793 -0.168264 0
+0.069092 -0.172134 0
+0.073083 -0.159037 0
+0.072241 -0.158686 0
+0.073787 -0.159091 0
+0.051870 -0.113378 0
+0.053931 -0.118845 0
+0.049710 -0.107691 0
+0.019673 -0.054526 0
+0.031219 -0.081889 0
+0.009374 -0.027409 0
+0.069202 -0.197839 0
+0.068891 -0.184354 0
+0.068820 -0.211451 0
+0.083886 -0.157053 0
+0.078565 -0.157482 0
+0.089194 -0.154860 0
+0.023174 -0.044801 0
+0.034954 -0.071515 0
+0.011603 -0.021218 0
+0.053858 -0.124855 0
+0.041445 -0.152427 0
+0.063560 -0.090997 0
+0.103366 -0.143233 0
+0.091267 -0.107421 0
+0.103186 -0.155787 0
+0.098999 -0.246132 0
+0.100122 -0.248421 0
+0.097104 -0.241990 0
+0.098989 -0.229478 0
+0.097010 -0.233470 0
+0.100377 -0.224118 0
+0.105526 -0.228002 0
+0.103730 -0.223587 0
+0.106525 -0.230633 0
+0.104815 -0.242985 0
+0.106082 -0.237906 0
+0.102936 -0.246644 0
+0.088169 -0.244607 0
+0.091430 -0.247777 0
+0.085581 -0.236727 0
+0.086763 -0.201136 0
+0.084496 -0.212430 0
+0.090991 -0.194388 0
+0.103951 -0.200769 0
+0.100625 -0.194941 0
+0.105489 -0.208726 0
+0.100853 -0.233799 0
+0.103488 -0.225869 0
+0.097978 -0.241174 0
+0.097936 -0.248508 0
+0.099292 -0.248938 0
+0.096394 -0.247611 0
+0.089614 -0.231369 0
+0.092128 -0.233926 0
+0.086930 -0.228374 0
+0.098886 -0.205615 0
+0.100116 -0.211737 0
+0.097468 -0.199101 0
+0.106362 -0.225100 0
+0.106654 -0.228489 0
+0.105872 -0.221284 0
+0.079570 -0.236279 0
+0.086250 -0.239959 0
+0.073481 -0.231427 0
+0.054956 -0.196653 0
+0.068798 -0.208762 0
+0.041601 -0.185832 0
+0.082135 -0.121155 0
+0.088136 -0.155045 0
+0.076685 -0.088379 0
+0.099907 -0.179789 0
+0.101954 -0.196339 0
+0.097454 -0.164838 0
-0.053858 +0.124855 0
-0.063560 +0.090997 0
-0.041445 +0.152427 0
+0.023247 +0.064573 0
-0.002957 +0.122336 0
+0.048280 +0.003559 0
-0.087685 +0.203274 0