# vtk DataFile Version 2.0
MyTitle
ASCII
DATASET UNSTRUCTURED_GRID
POINTS 2645 double
0.000000 0.000000 0.000000
1.000000 0.000000 0.000000
1.000000 1.000000 0.000000
0.000000 1.000000 0.000000
0.420000 0.420000 0.000000
0.580000 0.420000 0.000000
0.580000 0.580000 0.000000
0.420000 0.580000 0.000000
0.358579 0.358579 0.000000
0.641421 0.358579 0.000000
0.641421 0.641421 0.000000
0.358579 0.641421 0.000000
2.000000 0.000000 0.000000
2.000000 1.000000 0.000000
1.420000 0.420000 0.000000
1.580000 0.420000 0.000000
1.580000 0.580000 0.000000
1.420000 0.580000 0.000000
1.358579 0.358579 0.000000
1.641421 0.358579 0.000000
1.641421 0.641421 0.000000
1.358579 0.641421 0.000000
3.000000 0.000000 0.000000
3.000000 1.000000 0.000000
2.420000 0.420000 0.000000
2.580000 0.420000 0.000000
2.580000 0.580000 0.000000
2.420000 0.580000 0.000000
2.358579 0.358579 0.000000
2.641421 0.358579 0.000000
2.641421 0.641421 0.000000
2.358579 0.641421 0.000000
4.000000 0.000000 0.000000
4.000000 1.000000 0.000000
3.420000 0.420000 0.000000
3.580000 0.420000 0.000000
3.580000 0.580000 0.000000
3.420000 0.580000 0.000000
3.358579 0.358579 0.000000
3.641421 0.358579 0.000000
3.641421 0.641421 0.000000
3.358579 0.641421 0.000000
5.000000 0.000000 0.000000
5.000000 1.000000 0.000000
4.420000 0.420000 0.000000
4.580000 0.420000 0.000000
4.580000 0.580000 0.000000
4.420000 0.580000 0.000000
4.358579 0.358579 0.000000
4.641421 0.358579 0.000000
4.641421 0.641421 0.000000
4.358579 0.641421 0.000000
1.000000 2.000000 0.000000
0.000000 2.000000 0.000000
0.420000 1.420000 0.000000
0.580000 1.420000 0.000000
0.580000 1.580000 0.000000
0.420000 1.580000 0.000000
0.358579 1.358579 0.000000
0.641421 1.358579 0.000000
0.641421 1.641421 0.000000
0.358579 1.641421 0.000000
2.000000 2.000000 0.000000
1.420000 1.420000 0.000000
1.580000 1.420000 0.000000
1.580000 1.580000 0.000000
1.420000 1.580000 0.000000
1.358579 1.358579 0.000000
1.641421 1.358579 0.000000
1.641421 1.641421 0.000000
1.358579 1.641421 0.000000
3.000000 2.000000 0.000000
2.420000 1.420000 0.000000
2.580000 1.420000 0.000000
2.580000 1.580000 0.000000
2.420000 1.580000 0.000000
2.358579 1.358579 0.000000
2.641421 1.358579 0.000000
2.641421 1.641421 0.000000
2.358579 1.641421 0.000000
4.000000 2.000000 0.000000
3.420000 1.420000 0.000000
3.580000 1.420000 0.000000
3.580000 1.580000 0.000000
3.420000 1.580000 0.000000
3.358579 1.358579 0.000000
3.641421 1.358579 0.000000
3.641421 1.641421 0.000000
3.358579 1.641421 0.000000
5.000000 2.000000 0.000000
4.420000 1.420000 0.000000
4.580000 1.420000 0.000000
4.580000 1.580000 0.000000
4.420000 1.580000 0.000000
4.358579 1.358579 0.000000
4.641421 1.358579 0.000000
4.641421 1.641421 0.000000
4.358579 1.641421 0.000000
1.000000 3.000000 0.000000
0.000000 3.000000 0.000000
0.420000 2.420000 0.000000
0.580000 2.420000 0.000000
0.580000 2.580000 0.000000
0.420000 2.580000 0.000000
0.358579 2.358579 0.000000
0.641421 2.358579 0.000000
0.641421 2.641421 0.000000
0.358579 2.641421 0.000000
2.000000 3.000000 0.000000
1.420000 2.420000 0.000000
1.580000 2.420000 0.000000
1.580000 2.580000 0.000000
1.420000 2.580000 0.000000
1.358579 2.358579 0.000000
1.641421 2.358579 0.000000
1.641421 2.641421 0.000000
1.358579 2.641421 0.000000
3.000000 3.000000 0.000000
4.000000 3.000000 0.000000
3.420000 2.420000 0.000000
3.580000 2.420000 0.000000
3.580000 2.580000 0.000000
3.420000 2.580000 0.000000
3.358579 2.358579 0.000000
3.641421 2.358579 0.000000
3.641421 2.641421 0.000000
3.358579 2.641421 0.000000
5.000000 3.000000 0.000000
4.420000 2.420000 0.000000
4.580000 2.420000 0.000000
4.580000 2.580000 0.000000
4.420000 2.580000 0.000000
4.358579 2.358579 0.000000
4.641421 2.358579 0.000000
4.641421 2.641421 0.000000
4.358579 2.641421 0.000000
1.000000 4.000000 0.000000
0.000000 4.000000 0.000000
0.420000 3.420000 0.000000
0.580000 3.420000 0.000000
0.580000 3.580000 0.000000
0.420000 3.580000 0.000000
0.358579 3.358579 0.000000
0.641421 3.358579 0.000000
0.641421 3.641421 0.000000
0.358579 3.641421 0.000000
2.000000 4.000000 0.000000
1.420000 3.420000 0.000000
1.580000 3.420000 0.000000
1.580000 3.580000 0.000000
1.420000 3.580000 0.000000
1.358579 3.358579 0.000000
1.641421 3.358579 0.000000
1.641421 3.641421 0.000000
1.358579 3.641421 0.000000
3.000000 4.000000 0.000000
2.420000 3.420000 0.000000
2.580000 3.420000 0.000000
2.580000 3.580000 0.000000
2.420000 3.580000 0.000000
2.358579 3.358579 0.000000
2.641421 3.358579 0.000000
2.641421 3.641421 0.000000
2.358579 3.641421 0.000000
4.000000 4.000000 0.000000
3.420000 3.420000 0.000000
3.580000 3.420000 0.000000
3.580000 3.580000 0.000000
3.420000 3.580000 0.000000
3.358579 3.358579 0.000000
3.641421 3.358579 0.000000
3.641421 3.641421 0.000000
3.358579 3.641421 0.000000
5.000000 4.000000 0.000000
4.420000 3.420000 0.000000
4.580000 3.420000 0.000000
4.580000 3.580000 0.000000
4.420000 3.580000 0.000000
4.358579 3.358579 0.000000
4.641421 3.358579 0.000000
4.641421 3.641421 0.000000
4.358579 3.641421 0.000000
1.000000 5.000000 0.000000
0.000000 5.000000 0.000000
0.420000 4.420000 0.000000
0.580000 4.420000 0.000000
0.580000 4.580000 0.000000
0.420000 4.580000 0.000000
0.358579 4.358579 0.000000
0.641421 4.358579 0.000000
0.641421 4.641421 0.000000
0.358579 4.641421 0.000000
2.000000 5.000000 0.000000
1.420000 4.420000 0.000000
1.580000 4.420000 0.000000
1.580000 4.580000 0.000000
1.420000 4.580000 0.000000
1.358579 4.358579 0.000000
1.641421 4.358579 0.000000
1.641421 4.641421 0.000000
1.358579 4.641421 0.000000
3.000000 5.000000 0.000000
2.420000 4.420000 0.000000
2.580000 4.420000 0.000000
2.580000 4.580000 0.000000
2.420000 4.580000 0.000000
2.358579 4.358579 0.000000
2.641421 4.358579 0.000000
2.641421 4.641421 0.000000
2.358579 4.641421 0.000000
4.000000 5.000000 0.000000
3.420000 4.420000 0.000000
3.580000 4.420000 0.000000
3.580000 4.580000 0.000000
3.420000 4.580000 0.000000
3.358579 4.358579 0.000000
3.641421 4.358579 0.000000
3.641421 4.641421 0.000000
3.358579 4.641421 0.000000
5.000000 5.000000 0.000000
4.420000 4.420000 0.000000
4.580000 4.420000 0.000000
4.580000 4.580000 0.000000
4.420000 4.580000 0.000000
4.358579 4.358579 0.000000
4.641421 4.358579 0.000000
4.641421 4.641421 0.000000
4.358579 4.641421 0.000000
0.500000 0.000000 0.000000
0.250000 0.000000 0.000000
0.750000 0.000000 0.000000
1.000000 0.500000 0.000000
1.000000 0.250000 0.000000
1.000000 0.750000 0.000000
0.500000 1.000000 0.000000
0.750000 1.000000 0.000000
0.250000 1.000000 0.000000
0.000000 0.500000 0.000000
0.000000 0.750000 0.000000
0.000000 0.250000 0.000000
0.500000 0.420000 0.000000
0.460000 0.420000 0.000000
0.540000 0.420000 0.000000
0.580000 0.500000 0.000000
0.580000 0.460000 0.000000
0.580000 0.540000 0.000000
0.500000 0.580000 0.000000
0.540000 0.580000 0.000000
0.460000 0.580000 0.000000
0.420000 0.500000 0.000000
0.420000 0.540000 0.000000
0.420000 0.460000 0.000000
0.500000 0.300001 0.000000
0.423464 0.315225 0.000000
0.576536 0.315225 0.000000
0.699999 0.500000 0.000000
0.684775 0.423464 0.000000
0.684775 0.576536 0.000000
0.500000 0.699999 0.000000
0.576536 0.684775 0.000000
0.423464 0.684775 0.000000
0.300001 0.500000 0.000000
0.315225 0.576536 0.000000
0.315225 0.423464 0.000000
0.389290 0.389290 0.000000
0.404645 0.404645 0.000000
0.373934 0.373934 0.000000
0.610710 0.389290 0.000000
0.595355 0.404645 0.000000
0.626066 0.373934 0.000000
0.610710 0.610710 0.000000
0.595355 0.595355 0.000000
0.626066 0.626066 0.000000
0.389290 0.610710 0.000000
0.404645 0.595355 0.000000
0.373934 0.626066 0.000000
0.179290 0.179290 0.000000
0.268934 0.268934 0.000000
0.089645 0.089645 0.000000
0.820710 0.179290 0.000000
0.731066 0.268934 0.000000
0.910355 0.089645 0.000000
0.820710 0.820710 0.000000
0.731066 0.731066 0.000000
0.910355 0.910355 0.000000
0.179290 0.820710 0.000000
0.268934 0.731066 0.000000
0.089645 0.910355 0.000000
1.500000 0.000000 0.000000
1.250000 0.000000 0.000000
1.750000 0.000000 0.000000
2.000000 0.500000 0.000000
2.000000 0.250000 0.000000
2.000000 0.750000 0.000000
1.500000 1.000000 0.000000
1.750000 1.000000 0.000000
1.250000 1.000000 0.000000
1.500000 0.420000 0.000000
1.460000 0.420000 0.000000
1.540000 0.420000 0.000000
1.580000 0.500000 0.000000
1.580000 0.460000 0.000000
1.580000 0.540000 0.000000
1.500000 0.580000 0.000000
1.540000 0.580000 0.000000
1.460000 0.580000 0.000000
1.420000 0.500000 0.000000
1.420000 0.540000 0.000000
1.420000 0.460000 0.000000
1.500000 0.300001 0.000000
1.423464 0.315225 0.000000
1.576536 0.315225 0.000000
1.699999 0.500000 0.000000
1.684775 0.423464 0.000000
1.684775 0.576536 0.000000
1.500000 0.699999 0.000000
1.576536 0.684775 0.000000
1.423464 0.684775 0.000000
1.300001 0.500000 0.000000
1.315225 0.576536 0.000000
1.315225 0.423464 0.000000
1.389290 0.389290 0.000000
1.404645 0.404645 0.000000
1.373934 0.373934 0.000000
1.610710 0.389290 0.000000
1.595355 0.404645 0.000000
1.626066 0.373934 0.000000
1.610710 0.610710 0.000000
1.595355 0.595355 0.000000
1.626066 0.626066 0.000000
1.389290 0.610710 0.000000
1.404645 0.595355 0.000000
1.373934 0.626066 0.000000
1.179290 0.179290 0.000000
1.268934 0.268934 0.000000
1.089645 0.089645 0.000000
1.820710 0.179290 0.000000
1.731066 0.268934 0.000000
1.910355 0.089645 0.000000
1.820710 0.820710 0.000000
1.731066 0.731066 0.000000
1.910355 0.910355 0.000000
1.179290 0.820710 0.000000
1.268934 0.731066 0.000000
1.089645 0.910355 0.000000
2.500000 0.000000 0.000000
2.250000 0.000000 0.000000
2.750000 0.000000 0.000000
3.000000 0.500000 0.000000
3.000000 0.250000 0.000000
3.000000 0.750000 0.000000
2.500000 1.000000 0.000000
2.750000 1.000000 0.000000
2.250000 1.000000 0.000000
2.500000 0.420000 0.000000
2.460000 0.420000 0.000000
2.540000 0.420000 0.000000
2.580000 0.500000 0.000000
2.580000 0.460000 0.000000
2.580000 0.540000 0.000000
2.500000 0.580000 0.000000
2.540000 0.580000 0.000000
2.460000 0.580000 0.000000
2.420000 0.500000 0.000000
2.420000 0.540000 0.000000
2.420000 0.460000 0.000000
2.500000 0.300001 0.000000
[...]
POINT_DATA 2645
VECTORS sol double
+0.000000 +0.000000 0
+0.000000 +0.000000 0
+0.090322 +0.071928 0
+0.000000 +0.000000 0
+0.026509 +0.021110 0
+0.034132 +0.028204 0
+0.044364 +0.035330 0
+0.034293 +0.026287 0
+0.019375 +0.015429 0
+0.030842 +0.026236 0
+0.049939 +0.039769 0
+0.031105 +0.023096 0
+0.000000 +0.000000 0
+0.094103 +0.161653 0
+0.061750 +0.075651 0
+0.062330 +0.083631 0
+0.080512 +0.105691 0
+0.079830 +0.095280 0
+0.051027 +0.060914 0
+0.051935 +0.072972 0
+0.083133 +0.112478 0
+0.081916 +0.093102 0
+0.000000 +0.000000 0
+0.029872 +0.217731 0
+0.044588 +0.126414 0
+0.039487 +0.130868 0
+0.050137 +0.166881 0
+0.056978 +0.160909 0
+0.038967 +0.104242 0
+0.031338 +0.110903 0
+0.048493 +0.173702 0
+0.061361 +0.162467 0
+0.000000 +0.000000 0
-0.013649 +0.162702 0
+0.007866 +0.131181 0
+0.004131 +0.125955 0
+0.004059 +0.161432 0
+0.008973 +0.168149 0
+0.008227 +0.111132 0
+0.002600 +0.103194 0
+0.001791 +0.163056 0
+0.010967 +0.175483 0
+0.000000 +0.000000 0
+0.000000 +0.000000 0
-0.004638 +0.062053 0
-0.004006 +0.047752 0
-0.005702 +0.061206 0
-0.006704 +0.079916 0
-0.003809 +0.056489 0
-0.002928 +0.034901 0
-0.005552 +0.055100 0
-0.007547 +0.089958 0
+0.107741 -0.000914 0
+0.000000 +0.000000 0
+0.065914 +0.026014 0
+0.084816 +0.035837 0
+0.087051 +0.027749 0
+0.067676 +0.019900 0
+0.054216 +0.022897 0
+0.086299 +0.040857 0
+0.090410 +0.025724 0
+0.056907 +0.013705 0
+0.089987 +0.071661 0
+0.146709 +0.116832 0
+0.146161 +0.133530 0
+0.147724 +0.117641 0
+0.148856 +0.101408 0
+0.137592 +0.109572 0
+0.136992 +0.138424 0
+0.139249 +0.110892 0
+0.141605 +0.083438 0
-0.013599 +0.162099 0
+0.086974 +0.236509 0
+0.071900 +0.249670 0
+0.066933 +0.236565 0
+0.083072 +0.222474 0
+0.089161 +0.223321 0
+0.063978 +0.245308 0
+0.054764 +0.223418 0
+0.083154 +0.198631 0
-0.060375 +0.145862 0
-0.013375 +0.272815 0
-0.022171 +0.264276 0
-0.031207 +0.258614 0
-0.022324 +0.266104 0
-0.005788 +0.263080 0
-0.020793 +0.247852 0
-0.036313 +0.238771 0
-0.021043 +0.250838 0
+0.000000 +0.000000 0
-0.028940 +0.135154 0
-0.023424 +0.104012 0
-0.027513 +0.103007 0
-0.034295 +0.133692 0
-0.027212 +0.139960 0
-0.018505 +0.086387 0
-0.024675 +0.084931 0
-0.037193 +0.137130 0
+0.060375 -0.145862 0
+0.000000 +0.000000 0
+0.058885 -0.044013 0
+0.075149 -0.055688 0
+0.070104 -0.071127 0
+0.055124 -0.055524 0
+0.050481 -0.033009 0
+0.079228 -0.050509 0
+0.069738 -0.079548 0
+0.044855 -0.050226 0
+0.013599 -0.162099 0
+0.113278 -0.077038 0
+0.107658 -0.070586 0
+0.095756 -0.107007 0
+0.102162 -0.111055 0
+0.113117 -0.062236 0
+0.103979 -0.049608 0
+0.083043 -0.113675 0
+0.094546 -0.119068 0
-0.089987 -0.071661 0
-0.107741 +0.000914 0
-0.095756 +0.107007 0
-0.102162 +0.111055 0
-0.113278 +0.077038 0
-0.107658 +0.070586 0
-0.083043 +0.113675 0
-0.094546 +0.119068 0
-0.113117 +0.062236 0
-0.103979 +0.049608 0
+0.000000 +0.000000 0
-0.070104 +0.071127 0
-0.055124 +0.055524 0
-0.058885 +0.044013 0
-0.075149 +0.055688 0
-0.069738 +0.079548 0
-0.044855 +0.050226 0
-0.050481 +0.033009 0
-0.079228 +0.050509 0
+0.013649 -0.162702 0
+0.000000 +0.000000 0
+0.027513 -0.103007 0
+0.034295 -0.133692 0
+0.028940 -0.135154 0
+0.023424 -0.104012 0
+0.024675 -0.084931 0
+0.037193 -0.137130 0
+0.027212 -0.139960 0
+0.018505 -0.086387 0
-0.029872 -0.217731 0
+0.031207 -0.258614 0
+0.022324 -0.266104 0
+0.013375 -0.272815 0
+0.022171 -0.264276 0
+0.036313 -0.238771 0
+0.021043 -0.250838 0
+0.005788 -0.263080 0
+0.020793 -0.247852 0
-0.094103 -0.161653 0
-0.066933 -0.236565 0
-0.083072 -0.222474 0
-0.086974 -0.236509 0
-0.071900 -0.249670 0
-0.054764 -0.223418 0
-0.083154 -0.198631 0
-0.089161 -0.223321 0
-0.063978 -0.245308 0
-0.090322 -0.071928 0
-0.147724 -0.117641 0
-0.148856 -0.101408 0
-0.146709 -0.116832 0
-0.146161 -0.133530 0
-0.139249 -0.110892 0
-0.141605 -0.083438 0
-0.137592 -0.109572 0
-0.136992 -0.138424 0
+0.000000 +0.000000 0
-0.087051 -0.027749 0
-0.067676 -0.019900 0
-0.065914 -0.026014 0
-0.084816 -0.035837 0
-0.090410 -0.025724 0
-0.056907 -0.013705 0
-0.054216 -0.022897 0
-0.086299 -0.040857 0
+0.000000 +0.000000 0
+0.000000 +0.000000 0
+0.005702 -0.061206 0
+0.006704 -0.079916 0
+0.004638 -0.062053 0
+0.004006 -0.047752 0
+0.005552 -0.055100 0
+0.007547 -0.089958 0
+0.003809 -0.056489 0
+0.002928 -0.034901 0
+0.000000 +0.000000 0
-0.004059 -0.161432 0
-0.008973 -0.168149 0
-0.007866 -0.131181 0
-0.004131 -0.125955 0
-0.001791 -0.163056 0
-0.010967 -0.175483 0
-0.008227 -0.111132 0
-0.002600 -0.103194 0
+0.000000 +0.000000 0
-0.050137 -0.166881 0
-0.056978 -0.160909 0
-0.044588 -0.126414 0
-0.039487 -0.130868 0
-0.048493 -0.173702 0
-0.061361 -0.162467 0
-0.038967 -0.104242 0
-0.031338 -0.110903 0
+0.000000 +0.000000 0
-0.080512 -0.105691 0
-0.079830 -0.095280 0
-0.061750 -0.075651 0
-0.062330 -0.083631 0
-0.083133 -0.112478 0
-0.081916 -0.093102 0
-0.051027 -0.060914 0
-0.051935 -0.072972 0
+0.000000 +0.000000 0
-0.044364 -0.035330 0
-0.034293 -0.026287 0
-0.026509 -0.021110 0
-0.034132 -0.028204 0
-0.049939 -0.039769 0
-0.031105 -0.023096 0
-0.019375 -0.015429 0
-0.030842 -0.026236 0
+0.000000 +0.000000 0
+0.000000 +0.000000 0
+0.000000 +0.000000 0
+0.052976 +0.051185 0
+0.027765 +0.027874 0
+0.073373 +0.065721 0
+0.054391 +0.034316 0
+0.074519 +0.052054 0
+0.028671 +0.017069 0
+0.000000 +0.000000 0
+0.000000 +0.000000 0
+0.000000 +0.000000 0
+0.030760 +0.024909 0
+0.028733 +0.023064 0
+0.032565 +0.026626 0
+0.039752 +0.032307 0
+0.037055 +0.030379 0
+0.042193 +0.033960 0
+0.039854 +0.031088 0
+0.042249 +0.033286 0
+0.037192 +0.028748 0
+0.030825 +0.024135 0
+0.032674 +0.025327 0
+0.028762 +0.022722 0
+0.021835 +0.018025 0
+0.020043 +0.016246 0
+0.025452 +0.021364 0
+0.043600 +0.036841 0
+0.037275 +0.031792 0
+0.048262 +0.039738 0
+0.043934 +0.032867 0
+0.048468 +0.037293 0
+0.037606 +0.027840 0
+0.021935 +0.016832 0
+0.025625 +0.019311 0
+0.020087 +0.015712 0
+0.022947 +0.018274 0
+0.024719 +0.019685 0
+0.021126 +0.016824 0
+0.032679 +0.027388 0
+0.033460 +0.027845 0
+0.031837 +0.026886 0
+0.047301 +0.037668 0
+0.045857 +0.036518 0
+0.048659 +0.038750 0
+0.032893 +0.024831 0
+0.033649 +0.025597 0
+0.032078 +0.024013 0
+0.004778 +0.003805 0
+0.010974 +0.008739 0
+0.001201 +0.000957 0
+0.017704 +0.016517 0
+0.024626 +0.021885 0
+0.009498 +0.009259 0
+0.068887 +0.054858 0
+0.058754 +0.046789 0
+0.079522 +0.063328 0
+0.018084 +0.011983 0
+0.024984 +0.017623 0
+0.009765 +0.006081 0
+0.000000 +0.000000 0
+0.000000 +0.000000 0
+0.000000 +0.000000 0
+0.057492 +0.107392 0
+0.030399 +0.057749 0
+0.078307 +0.141509 0
+0.108754 +0.119095 0
+0.104443 +0.140256 0
+0.102914 +0.095319 0
+0.062912 +0.080541 0
+0.062547 +0.078309 0
+0.062837 +0.082319 0
+0.072405 +0.096192 0
+0.067589 +0.090260 0
+0.076723 +0.101348 0
+0.081208 +0.101512 0
+0.081116 +0.103865 0
+0.080774 +0.098638 0
+0.071760 +0.086902 0
+0.076056 +0.091473 0
+0.066973 +0.081603 0
+0.044746 +0.057996 0
+0.046406 +0.057635 0
+0.046839 +0.063332 0
+0.067901 +0.097831 0
+0.059460 +0.085374 0
+0.076239 +0.107515 0
+0.089162 +0.108540 0
+0.087767 +0.112766 0
+0.087107 +0.101657 0
+0.066290 +0.075212 0
+0.074678 +0.084072 0
+0.058129 +0.067348 0
+0.056586 +0.068460 0
+0.059213 +0.072088 0
+0.053846 +0.064698 0
+0.057342 +0.078670 0
+0.059885 +0.081248 0
+0.054686 +0.075948 0
+0.082172 +0.109491 0
+0.081423 +0.107674 0
+0.082771 +0.111103 0
+0.081221 +0.094636 0
+0.080606 +0.095069 0
+0.081686 +0.094022 0
+0.022682 +0.025069 0
+0.036059 +0.041526 0
+0.010750 +0.011409 0
+0.023841 +0.038872 0
+0.037211 +0.055993 0
+0.011530 +0.020326 0
+0.089852 +0.135277 0
+0.086195 +0.122782 0
+0.092614 +0.148407 0
+0.087108 +0.083848 0
+0.084201 +0.088330 0
+0.089261 +0.078437 0
+0.000000 +0.000000 0
+0.000000 +0.000000 0
+0.000000 +0.000000 0
+0.022639 +0.137820 0
+0.012461 +0.073410 0
+0.028413 +0.185070 0
+0.067230 +0.205736 0
+0.048893 +0.214676 0
+0.081973 +0.185795 0
+0.042559 +0.130239 0
+0.043710 +0.128715 0
+0.041145 +0.130955 0
+0.045525 +0.151141 0
+0.042667 +0.141518 0
+0.048021 +0.159616 0
+0.054164 +0.165752 0
+0.052292 +0.166781 0
+0.055729 +0.163781 0
+0.051540 +0.145890 0
+0.054461 +0.153994 0
+0.048235 +0.136657 0
+0.030494 +0.093317 0
+0.033587 +0.095715 0
+0.029994 +0.098852 0
+0.038315 +0.145849 0
+0.034381 +0.127774 0
+0.043119 +0.162131 0
+0.058552 +0.179178 0
+0.053926 +0.179717 0
+0.061398 +0.173193 0
+0.052858 +0.133152 0
+0.058465 +0.148732 0
+0.045854 +0.117757 0
+0.041983 +0.115706 0
+0.043340 +0.121143 0
+0.040547 +0.110044 0
+0.035490 +0.121374 0
+0.037500 +0.126242 0
+0.033410 +0.116275 0
+0.049563 +0.170978 0
+0.049914 +0.169080 0
+0.049119 +0.172556 0
+0.059381 +0.162406 0
+0.058220 +0.161829 0
+0.060430 +0.162681 0
+0.020643 +0.046583 0
+0.029866 +0.073704 0
+0.010726 +0.022265 0
+0.012209 +0.053947 0
+0.020870 +0.081558 0
+0.005357 +0.026952 0
+0.041004 +0.195035 0
+0.044878 +0.183160 0
+0.036039 +0.206796 0
+0.076373 +0.164155 0
+0.068180 +0.162815 0
+0.085114 +0.163951 0
+0.000000 +0.000000 0
+0.000000 +0.000000 0
+0.000000 +0.000000 0
-0.003430 +0.100432 0
-0.001265 +0.053219 0
-0.007381 +0.136224 0
+0.000085 +0.213970 0
-0.008758 +0.192816 0
+0.013243 +0.219880 0
+0.005972 +0.130254 0
+0.006917 +0.131141 0
+0.005040 +0.128516 0
+0.004286 +0.145811 0
+0.004253 +0.136361 0
+0.004222 +0.154189 0
+0.006461 +0.166771 0
+0.005241 +0.164583 0
+0.007709 +0.167954 0
+0.008651 +0.151854 0
+0.008872 +0.160587 0
+0.008313 +0.142012 0
+0.004609 +0.093039 0
+0.006158 +0.098849 0
+0.003503 +0.095093 0
+0.001384 +0.131880 0
+0.001922 +0.116420 0
+0.001224 +0.148202 0
+0.005612 +0.181485 0
+0.003255 +0.174865 0
+0.008537 +0.181939 0
+0.011989 +0.146645 0
+0.012277 +0.163357 0
+0.010348 +0.128251 0
+0.008118 +0.121646 0
+0.008014 +0.126534 0
+0.008210 +0.116525 0
+0.003346 +0.114942 0
+0.003730 +0.120527 0
+0.002957 +0.109128 0
+0.002958 +0.162965 0
+0.003520 +0.162370 0
+0.002387 +0.163255 0
+0.009983 +0.172518 0
+0.009475 +0.170489 0
+0.010469 +0.174228 0
+0.006509 +0.054003 0
+0.007780 +0.081688 0
+0.003924 +0.026966 0
+0.000135 +0.044754 0
+0.001065 +0.072078 0
-0.000176 +0.020948 0
-0.005802 +0.164964 0
-0.001906 +0.163507 0
-0.009750 +0.164880 0
+0.018824 +0.197289 0
+0.014504 +0.185373 0
+0.023965 +0.208343 0
+0.000000 +0.000000 0
+0.000000 +0.000000 0
+0.000000 +0.000000 0
+0.000000 +0.000000 0
+0.000000 +0.000000 0
+0.000000 +0.000000 0
-0.012795 +0.092974 0
-0.007263 +0.048442 0
-0.014968 +0.130182 0
-0.004439 +0.055640 0
-0.004569 +0.059047 0
-0.004249 +0.051860 0
-0.004868 +0.055298 0
-0.004439 +0.051709 0
-0.005290 +0.058473 0
-0.006353 +0.071430 0
-0.006063 +0.066512 0
-0.006568 +0.075906 0
-0.005677 +0.071969 0
-0.006193 +0.076204 0
-0.005158 +0.067233 0
-0.002976 +0.039687 0
-0.003290 +0.046458 0
-0.002884 +0.036262 0
-0.003639 +0.039160 0
-0.003180 +0.036026 0
-0.004429 +0.045550 0
-0.007717 +0.077962 0
-0.006755 +0.066570 0
-0.007987 +0.086582 0
-0.005511 +0.079718 0
-0.006630 +0.087663 0
-0.004561 +0.068318 0
-0.004245 +0.059625 0
-0.004447 +0.060940 0
-0.004032 +0.058202 0
-0.003468 +0.041336 0
-0.003736 +0.044528 0
-0.003193 +0.038056 0
-0.005664 +0.058494 0
-0.005695 +0.059947 0
-0.005627 +0.056932 0
-0.007148 +0.085206 0
-0.006930 +0.082605 0
-0.007353 +0.087652 0
-0.001446 +0.033236 0
-0.002566 +0.045625 0
-0.000573 +0.018052 0
-0.000722 +0.008607 0
-0.001658 +0.019768 0
-0.000182 +0.002164 0
-0.003963 +0.031231 0
-0.004931 +0.043741 0
-0.002338 +0.016647 0
-0.010410 +0.124090 0
-0.008879 +0.105838 0
-0.012017 +0.143248 0
+0.113863 +0.058187 0
+0.105016 +0.070267 0
+0.113421 +0.033240 0
+0.067181 -0.008108 0
+0.090755 -0.006876 0
+0.035674 -0.005131 0
+0.000000 +0.000000 0
+0.000000 +0.000000 0
+0.000000 +0.000000 0
+0.076440 +0.031118 0
+0.071419 +0.028606 0
+0.080917 +0.033533 0
+0.087003 +0.032444 0
+0.086171 +0.034309 0
+0.087292 +0.030247 0
+0.078466 +0.023954 0
+0.083053 +0.025891 0
+0.073319 +0.021953 0
+0.067700 +0.023472 0
+0.067914 +0.021806 0
+0.067029 +0.024879 0
+0.069817 +0.033177 0
+0.061441 +0.027873 0
+0.078548 +0.037950 0
+0.095066 +0.038171 0
+0.092185 +0.041123 0
+0.094510 +0.032391 0
+0.074783 +0.015796 0
+0.083600 +0.019773 0
+0.065440 +0.014091 0
+0.048263 +0.016073 0
+0.050933 +0.014530 0
+0.049658 +0.018866 0
+0.060266 +0.024595 0
+0.063134 +0.025344 0
+0.057278 +0.023796 0
+0.085932 +0.038477 0
+0.085462 +0.037180 0
+0.086242 +0.039708 0
+0.089101 +0.026903 0
+0.088160 +0.027374 0
+0.089878 +0.026387 0
+0.062533 +0.016792 0
+0.065163 +0.018334 0
+0.059782 +0.015209 0
+0.023784 +0.011934 0
+0.038074 +0.017510 0
+0.011198 +0.006068 0
+0.089385 +0.056704 0
+0.087547 +0.048443 0
+0.090418 +0.064652 0
+0.099874 +0.015813 0
+0.094710 +0.021283 0
+0.104355 +0.008450 0
+0.026968 +0.001590 0
+0.041357 +0.006575 0
+0.013283 -0.000566 0
+0.110314 +0.158366 0
+0.105995 +0.169269 0
+0.103539 +0.123199 0
+0.121405 +0.026165 0
+0.109948 +0.046812 0
+0.119341 +0.010179 0
+0.148460 +0.126371 0
+0.148086 +0.121877 0
+0.147808 +0.130263 0
+0.148909 +0.127732 0
+0.148019 +0.131179 0
+0.148803 +0.123196 0
+0.150348 +0.110583 0
+0.149542 +0.114392 0
+0.150112 +0.106239 0
+0.149741 +0.111102 0
+0.149783 +0.106725 0
+0.148707 +0.114476 0
+0.136814 +0.126815 0
+0.137168 +0.118508 0
+0.136977 +0.134091 0
+0.137696 +0.133784 0
+0.137434 +0.138750 0
+0.138419 +0.123797 0
+0.141491 +0.088547 0
+0.140553 +0.098363 0
+0.142043 +0.083812 0
+0.139623 +0.093327 0
+0.140910 +0.087205 0
+0.138627 +0.101123 0
+0.142729 +0.113663 0
+0.144854 +0.115355 0
+0.140331 +0.111753 0
+0.142124 +0.136551 0
+0.144267 +0.135171 0
+0.139711 +0.137680 0
+0.144081 +0.114739 0
+0.146043 +0.116302 0
+0.141849 +0.112962 0
+0.145799 +0.092738 0
+0.147457 +0.097144 0
+0.143867 +0.088148 0
+0.112371 +0.089487 0
+0.123934 +0.098696 0
+0.101355 +0.080714 0
+0.113205 +0.151681 0
+0.123838 +0.144473 0
+0.103519 +0.157617 0
+0.114694 +0.091337 0
+0.126162 +0.100470 0
+0.102859 +0.081913 0
+0.122882 +0.036328 0
+0.131050 +0.058508 0
+0.115343 +0.016674 0
+0.019186 +0.237927 0
+0.027132 +0.238122 0
+0.005072 +0.209168 0
+0.041294 +0.126367 0
+0.013619 +0.146440 0
+0.066890 +0.099931 0
+0.080364 +0.245928 0
+0.083918 +0.241902 0
+0.076341 +0.248517 0
+0.070546 +0.246801 0
+0.071508 +0.249161 0
+0.069013 +0.242574 0
+0.075897 +0.232257 0
+0.071616 +0.235105 0
+0.079726 +0.228024 0
+0.086268 +0.233075 0
+0.084971 +0.228641 0
+0.086933 +0.235694 0
+0.077326 +0.236630 0
+0.083870 +0.230556 0
+0.070599 +0.242143 0
+0.054644 +0.241980 0
+0.058559 +0.245799 0
+0.053266 +0.234266 0
+0.066523 +0.203572 0
+0.059453 +0.212702 0
+0.075098 +0.199043 0
+0.092659 +0.208790 0
+0.089502 +0.202629 0
+0.092424 +0.216232 0
+0.088469 +0.230811 0
+0.087818 +0.233863 0
+0.088956 +0.227321 0
+0.068171 +0.248533 0
+0.070085 +0.249345 0
+0.066126 +0.247253 0
+0.061097 +0.230888 0
+0.064078 +0.233929 0
+0.057999 +0.227408 0
+0.083430 +0.211389 0
+0.083320 +0.217130 0
+0.083384 +0.205245 0
+0.093298 +0.189169 0
+0.091064 +0.204278 0
+0.094402 +0.175325 0
+0.044311 +0.231937 0
+0.053237 +0.237304 0
+0.036658 +0.225740 0
+0.019821 +0.189408 0
+0.036871 +0.204441 0
+0.003091 +0.175657 0
+0.085291 +0.132248 0
+0.083453 +0.163772 0
+0.087601 +0.101875 0
-0.033727 +0.187043 0
-0.022665 +0.181741 0
-0.046166 +0.172570 0
-0.054203 +0.179482 0
-0.061185 +0.167790 0
-0.037334 +0.175398 0
-0.018294 +0.271958 0
-0.015953 +0.273237 0
-0.020371 +0.268952 0
-0.026770 +0.265208 0
-0.024480 +0.265680 0
-0.029019 +0.262831 0
-0.027372 +0.265744 0
-0.029449 +0.263007 0
-0.024986 +0.266767 0
-0.017852 +0.273326 0
-0.020099 +0.270659 0
-0.015604 +0.274033 0
-0.011592 +0.256383 0
-0.007983 +0.260650 0
-0.016013 +0.252246 0
-0.030183 +0.241578 0
-0.025665 +0.244560 0
-0.034011 +0.239923 0
-0.033652 +0.241458 0
-0.036366 +0.239575 0
-0.028139 +0.245641 0
-0.008539 +0.261457 0
-0.014019 +0.256886 0
-0.005868 +0.263862 0
-0.009594 +0.269011 0
-0.011487 +0.271154 0
-0.007678 +0.266361 0
-0.021569 +0.257106 0
-0.021890 +0.260934 0
-0.021207 +0.252786 0
-0.033916 +0.249642 0
-0.032598 +0.254343 0
-0.035176 +0.244464 0
-0.021773 +0.259540 0
-0.022070 +0.263076 0
-0.021436 +0.255520 0
+0.014180 +0.238136 0
+0.004602 +0.248574 0
+0.022584 +0.228278 0
-0.016981 +0.202420 0
-0.018729 +0.223250 0
-0.015317 +0.182576 0
-0.049857 +0.187140 0
-0.043121 +0.210570 0
-0.055658 +0.165969 0
-0.017332 +0.206605 0
-0.019065 +0.227263 0
-0.015544 +0.185286 0
+0.000000 +0.000000 0
+0.000000 +0.000000 0
+0.000000 +0.000000 0
-0.041479 +0.086760 0
-0.022446 +0.045611 0
-0.053961 +0.119471 0
-0.026682 +0.121150 0
-0.027943 +0.128575 0
-0.025167 +0.112932 0
-0.025710 +0.105025 0
-0.024621 +0.104895 0
-0.026676 +0.104389 0
-0.031451 +0.119919 0
-0.029607 +0.111814 0
-0.033017 +0.127228 0
-0.031881 +0.136237 0
-0.033159 +0.135409 0
-0.030470 +0.136144 0
-0.021952 +0.113297 0
-0.024380 +0.127812 0
-0.019992 +0.098969 0
-0.018664 +0.074505 0
-0.018020 +0.077953 0
-0.020933 +0.077275 0
-0.033551 +0.110379 0
-0.029223 +0.096738 0
-0.036432 +0.124568 0
-0.033452 +0.150376 0
-0.036082 +0.146407 0
-0.030349 +0.148104 0
-0.028218 +0.138137 0
-0.028616 +0.136778 0
-0.027764 +0.139244 0
-0.021005 +0.095550 0
-0.022219 +0.099863 0
-0.019750 +0.091046 0
-0.026233 +0.094290 0
-0.026912 +0.098721 0
-0.025508 +0.089673 0
-0.035865 +0.136006 0
-0.035102 +0.134990 0
-0.036560 +0.136776 0
-0.020870 +0.152964 0
-0.024049 +0.145873 0
-0.017403 +0.158786 0
-0.007157 +0.038947 0
-0.012268 +0.061461 0
-0.003141 +0.018587 0
-0.014187 +0.037522 0
-0.019653 +0.059841 0
-0.007674 +0.017730 0
-0.047495 +0.144476 0
-0.041842 +0.140502 0
-0.053731 +0.146470 0
+0.091167 -0.079595 0
+0.100927 -0.040141 0
+0.076532 -0.114793 0
+0.041479 -0.086760 0
+0.053961 -0.119471 0
+0.022446 -0.045611 0
+0.000000 +0.000000 0
+0.000000 +0.000000 0
+0.000000 +0.000000 0
+0.068029 -0.050671 0
+0.063687 -0.047528 0
+0.071859 -0.053399 0
+0.073449 -0.064126 0
+0.074508 -0.060066 0
+0.071973 -0.067822 0
+0.063594 -0.064245 0
+0.067111 -0.067930 0
+0.059581 -0.060092 0
+0.057712 -0.050387 0
+0.056588 -0.053125 0
+0.058479 -0.047336 0
+0.067179 -0.037561 0
+0.058631 -0.034551 0
+0.074535 -0.042817 0
+0.079399 -0.069320 0
+0.080947 -0.059836 0
+0.075437 -0.076697 0
+0.056454 -0.070379 0
+0.063218 -0.077449 0
+0.050171 -0.060440 0
+0.041352 -0.036103 0
+0.041784 -0.041691 0
+0.044434 -0.033583 0
+0.054923 -0.038535 0
+0.056965 -0.041264 0
+0.052776 -0.035727 0
+0.077486 -0.053412 0
+0.076380 -0.054639 0
+0.078447 -0.052086 0
+0.070246 -0.075568 0
+0.070255 -0.073383 0
+0.070106 -0.077611 0
+0.050134 -0.053187 0
+0.052658 -0.054444 0
+0.047513 -0.051831 0
+0.025384 -0.009930 0
+0.037717 -0.019883 0
+0.012884 -0.003463 0
+0.092625 -0.029573 0
+0.085248 -0.040632 0
+0.100239 -0.016344 0
+0.066542 -0.109390 0
+0.068064 -0.093219 0
+0.064049 -0.127090 0
+0.019164 -0.028963 0
+0.031083 -0.040184 0
+0.008925 -0.015578 0
+0.055997 -0.048889 0
+0.074229 +0.012450 0
+0.034945 -0.107766 0
+0.054203 -0.179482 0
+0.037334 -0.175398 0
+0.061185 -0.167790 0
+0.112120 -0.075087 0
+0.113114 -0.076385 0
+0.110289 -0.073145 0
+0.102920 -0.089856 0
+0.105603 -0.080437 0
+0.099622 -0.098739 0
+0.100526 -0.110567 0
+0.098520 -0.109159 0
+0.101739 -0.111195 0
+0.108978 -0.095144 0
+0.105865 -0.103416 0
+0.111453 -0.086317 0
+0.113891 -0.044303 0
+0.114856 -0.051164 0
+0.110161 -0.043626 0
+0.090208 -0.078758 0
+0.096996 -0.061995 0
+0.085459 -0.097301 0
+0.085857 -0.130091 0
+0.083439 -0.125399 0
+0.089883 -0.127587 0
+0.104858 -0.091547 0
+0.099840 -0.106414 0
+0.109627 -0.076464 0
+0.113690 -0.069820 0
+0.113600 -0.073463 0
+0.113567 -0.066041 0
+0.106227 -0.060354 0
+0.107034 -0.065541 0
+0.105220 -0.055049 0
+0.089758 -0.110754 0
+0.092844 -0.108964 0
+0.086500 -0.112335 0
+0.098721 -0.115628 0
+0.100523 -0.113481 0
+0.096731 -0.117562 0
+0.111364 -0.026185 0
+0.111786 -0.042738 0
+0.110153 -0.012426 0
+0.095408 +0.011651 0
+0.098758 -0.018667 0
+0.092652 +0.041670 0
+0.047127 -0.136094 0
+0.064407 -0.123787 0
+0.030331 -0.149042 0
+0.075240 -0.136733 0
+0.083891 -0.128101 0
+0.067570 -0.142738 0
-0.055997 +0.048889 0
-0.034945 +0.107766 0
-0.074229 -0.012450 0
-0.041294 -0.126367 0
-0.066890 -0.099931 0
-0.013619 -0.146440 0
-0.091167 +0.079595 0