# vtk DataFile Version 2.0
MyTitle
ASCII
DATASET UNSTRUCTURED_GRID
POINTS 2645 double
0.000000 0.000000 0.000000
1.000000 0.000000 0.000000
1.000000 1.000000 0.000000
0.000000 1.000000 0.000000
0.420000 0.420000 0.000000
0.580000 0.420000 0.000000
0.580000 0.580000 0.000000
0.420000 0.580000 0.000000
0.358579 0.358579 0.000000
0.641421 0.358579 0.000000
0.641421 0.641421 0.000000
0.358579 0.641421 0.000000
2.000000 0.000000 0.000000
2.000000 1.000000 0.000000
1.420000 0.420000 0.000000
1.580000 0.420000 0.000000
1.580000 0.580000 0.000000
1.420000 0.580000 0.000000
1.358579 0.358579 0.000000
1.641421 0.358579 0.000000
1.641421 0.641421 0.000000
1.358579 0.641421 0.000000
3.000000 0.000000 0.000000
3.000000 1.000000 0.000000
2.420000 0.420000 0.000000
2.580000 0.420000 0.000000
2.580000 0.580000 0.000000
2.420000 0.580000 0.000000
2.358579 0.358579 0.000000
2.641421 0.358579 0.000000
2.641421 0.641421 0.000000
2.358579 0.641421 0.000000
4.000000 0.000000 0.000000
4.000000 1.000000 0.000000
3.420000 0.420000 0.000000
3.580000 0.420000 0.000000
3.580000 0.580000 0.000000
3.420000 0.580000 0.000000
3.358579 0.358579 0.000000
3.641421 0.358579 0.000000
3.641421 0.641421 0.000000
3.358579 0.641421 0.000000
5.000000 0.000000 0.000000
5.000000 1.000000 0.000000
4.420000 0.420000 0.000000
4.580000 0.420000 0.000000
4.580000 0.580000 0.000000
4.420000 0.580000 0.000000
4.358579 0.358579 0.000000
4.641421 0.358579 0.000000
4.641421 0.641421 0.000000
4.358579 0.641421 0.000000
1.000000 2.000000 0.000000
0.000000 2.000000 0.000000
0.420000 1.420000 0.000000
0.580000 1.420000 0.000000
0.580000 1.580000 0.000000
0.420000 1.580000 0.000000
0.358579 1.358579 0.000000
0.641421 1.358579 0.000000
0.641421 1.641421 0.000000
0.358579 1.641421 0.000000
2.000000 2.000000 0.000000
1.420000 1.420000 0.000000
1.580000 1.420000 0.000000
1.580000 1.580000 0.000000
1.420000 1.580000 0.000000
1.358579 1.358579 0.000000
1.641421 1.358579 0.000000
1.641421 1.641421 0.000000
1.358579 1.641421 0.000000
3.000000 2.000000 0.000000
2.420000 1.420000 0.000000
2.580000 1.420000 0.000000
2.580000 1.580000 0.000000
2.420000 1.580000 0.000000
2.358579 1.358579 0.000000
2.641421 1.358579 0.000000
2.641421 1.641421 0.000000
2.358579 1.641421 0.000000
4.000000 2.000000 0.000000
3.420000 1.420000 0.000000
3.580000 1.420000 0.000000
3.580000 1.580000 0.000000
3.420000 1.580000 0.000000
3.358579 1.358579 0.000000
3.641421 1.358579 0.000000
3.641421 1.641421 0.000000
3.358579 1.641421 0.000000
5.000000 2.000000 0.000000
4.420000 1.420000 0.000000
4.580000 1.420000 0.000000
4.580000 1.580000 0.000000
4.420000 1.580000 0.000000
4.358579 1.358579 0.000000
4.641421 1.358579 0.000000
4.641421 1.641421 0.000000
4.358579 1.641421 0.000000
1.000000 3.000000 0.000000
0.000000 3.000000 0.000000
0.420000 2.420000 0.000000
0.580000 2.420000 0.000000
0.580000 2.580000 0.000000
0.420000 2.580000 0.000000
0.358579 2.358579 0.000000
0.641421 2.358579 0.000000
0.641421 2.641421 0.000000
0.358579 2.641421 0.000000
2.000000 3.000000 0.000000
1.420000 2.420000 0.000000
1.580000 2.420000 0.000000
1.580000 2.580000 0.000000
1.420000 2.580000 0.000000
1.358579 2.358579 0.000000
1.641421 2.358579 0.000000
1.641421 2.641421 0.000000
1.358579 2.641421 0.000000
3.000000 3.000000 0.000000
4.000000 3.000000 0.000000
3.420000 2.420000 0.000000
3.580000 2.420000 0.000000
3.580000 2.580000 0.000000
3.420000 2.580000 0.000000
3.358579 2.358579 0.000000
3.641421 2.358579 0.000000
3.641421 2.641421 0.000000
3.358579 2.641421 0.000000
5.000000 3.000000 0.000000
4.420000 2.420000 0.000000
4.580000 2.420000 0.000000
4.580000 2.580000 0.000000
4.420000 2.580000 0.000000
4.358579 2.358579 0.000000
4.641421 2.358579 0.000000
4.641421 2.641421 0.000000
4.358579 2.641421 0.000000
1.000000 4.000000 0.000000
0.000000 4.000000 0.000000
0.420000 3.420000 0.000000
0.580000 3.420000 0.000000
0.580000 3.580000 0.000000
0.420000 3.580000 0.000000
0.358579 3.358579 0.000000
0.641421 3.358579 0.000000
0.641421 3.641421 0.000000
0.358579 3.641421 0.000000
2.000000 4.000000 0.000000
1.420000 3.420000 0.000000
1.580000 3.420000 0.000000
1.580000 3.580000 0.000000
1.420000 3.580000 0.000000
1.358579 3.358579 0.000000
1.641421 3.358579 0.000000
1.641421 3.641421 0.000000
1.358579 3.641421 0.000000
3.000000 4.000000 0.000000
2.420000 3.420000 0.000000
2.580000 3.420000 0.000000
2.580000 3.580000 0.000000
2.420000 3.580000 0.000000
2.358579 3.358579 0.000000
2.641421 3.358579 0.000000
2.641421 3.641421 0.000000
2.358579 3.641421 0.000000
4.000000 4.000000 0.000000
3.420000 3.420000 0.000000
3.580000 3.420000 0.000000
3.580000 3.580000 0.000000
3.420000 3.580000 0.000000
3.358579 3.358579 0.000000
3.641421 3.358579 0.000000
3.641421 3.641421 0.000000
3.358579 3.641421 0.000000
5.000000 4.000000 0.000000
4.420000 3.420000 0.000000
4.580000 3.420000 0.000000
4.580000 3.580000 0.000000
4.420000 3.580000 0.000000
4.358579 3.358579 0.000000
4.641421 3.358579 0.000000
4.641421 3.641421 0.000000
4.358579 3.641421 0.000000
1.000000 5.000000 0.000000
0.000000 5.000000 0.000000
0.420000 4.420000 0.000000
0.580000 4.420000 0.000000
0.580000 4.580000 0.000000
0.420000 4.580000 0.000000
0.358579 4.358579 0.000000
0.641421 4.358579 0.000000
0.641421 4.641421 0.000000
0.358579 4.641421 0.000000
2.000000 5.000000 0.000000
1.420000 4.420000 0.000000
1.580000 4.420000 0.000000
1.580000 4.580000 0.000000
1.420000 4.580000 0.000000
1.358579 4.358579 0.000000
1.641421 4.358579 0.000000
1.641421 4.641421 0.000000
1.358579 4.641421 0.000000
3.000000 5.000000 0.000000
2.420000 4.420000 0.000000
2.580000 4.420000 0.000000
2.580000 4.580000 0.000000
2.420000 4.580000 0.000000
2.358579 4.358579 0.000000
2.641421 4.358579 0.000000
2.641421 4.641421 0.000000
2.358579 4.641421 0.000000
4.000000 5.000000 0.000000
3.420000 4.420000 0.000000
3.580000 4.420000 0.000000
3.580000 4.580000 0.000000
3.420000 4.580000 0.000000
3.358579 4.358579 0.000000
3.641421 4.358579 0.000000
3.641421 4.641421 0.000000
3.358579 4.641421 0.000000
5.000000 5.000000 0.000000
4.420000 4.420000 0.000000
4.580000 4.420000 0.000000
4.580000 4.580000 0.000000
4.420000 4.580000 0.000000
4.358579 4.358579 0.000000
4.641421 4.358579 0.000000
4.641421 4.641421 0.000000
4.358579 4.641421 0.000000
0.500000 0.000000 0.000000
0.250000 0.000000 0.000000
0.750000 0.000000 0.000000
1.000000 0.500000 0.000000
1.000000 0.250000 0.000000
1.000000 0.750000 0.000000
0.500000 1.000000 0.000000
0.750000 1.000000 0.000000
0.250000 1.000000 0.000000
0.000000 0.500000 0.000000
0.000000 0.750000 0.000000
0.000000 0.250000 0.000000
0.500000 0.420000 0.000000
0.460000 0.420000 0.000000
0.540000 0.420000 0.000000
0.580000 0.500000 0.000000
0.580000 0.460000 0.000000
0.580000 0.540000 0.000000
0.500000 0.580000 0.000000
0.540000 0.580000 0.000000
0.460000 0.580000 0.000000
0.420000 0.500000 0.000000
0.420000 0.540000 0.000000
0.420000 0.460000 0.000000
0.500000 0.300001 0.000000
0.423464 0.315225 0.000000
0.576536 0.315225 0.000000
0.699999 0.500000 0.000000
0.684775 0.423464 0.000000
0.684775 0.576536 0.000000
0.500000 0.699999 0.000000
0.576536 0.684775 0.000000
0.423464 0.684775 0.000000
0.300001 0.500000 0.000000
0.315225 0.576536 0.000000
0.315225 0.423464 0.000000
0.389290 0.389290 0.000000
0.404645 0.404645 0.000000
0.373934 0.373934 0.000000
0.610710 0.389290 0.000000
0.595355 0.404645 0.000000
0.626066 0.373934 0.000000
0.610710 0.610710 0.000000
0.595355 0.595355 0.000000
0.626066 0.626066 0.000000
0.389290 0.610710 0.000000
0.404645 0.595355 0.000000
0.373934 0.626066 0.000000
0.179290 0.179290 0.000000
0.268934 0.268934 0.000000
0.089645 0.089645 0.000000
0.820710 0.179290 0.000000
0.731066 0.268934 0.000000
0.910355 0.089645 0.000000
0.820710 0.820710 0.000000
0.731066 0.731066 0.000000
0.910355 0.910355 0.000000
0.179290 0.820710 0.000000
0.268934 0.731066 0.000000
0.089645 0.910355 0.000000
1.500000 0.000000 0.000000
1.250000 0.000000 0.000000
1.750000 0.000000 0.000000
2.000000 0.500000 0.000000
2.000000 0.250000 0.000000
2.000000 0.750000 0.000000
1.500000 1.000000 0.000000
1.750000 1.000000 0.000000
1.250000 1.000000 0.000000
1.500000 0.420000 0.000000
1.460000 0.420000 0.000000
1.540000 0.420000 0.000000
1.580000 0.500000 0.000000
1.580000 0.460000 0.000000
1.580000 0.540000 0.000000
1.500000 0.580000 0.000000
1.540000 0.580000 0.000000
1.460000 0.580000 0.000000
1.420000 0.500000 0.000000
1.420000 0.540000 0.000000
1.420000 0.460000 0.000000
1.500000 0.300001 0.000000
1.423464 0.315225 0.000000
1.576536 0.315225 0.000000
1.699999 0.500000 0.000000
1.684775 0.423464 0.000000
1.684775 0.576536 0.000000
1.500000 0.699999 0.000000
1.576536 0.684775 0.000000
1.423464 0.684775 0.000000
1.300001 0.500000 0.000000
1.315225 0.576536 0.000000
1.315225 0.423464 0.000000
1.389290 0.389290 0.000000
1.404645 0.404645 0.000000
1.373934 0.373934 0.000000
1.610710 0.389290 0.000000
1.595355 0.404645 0.000000
1.626066 0.373934 0.000000
1.610710 0.610710 0.000000
1.595355 0.595355 0.000000
1.626066 0.626066 0.000000
1.389290 0.610710 0.000000
1.404645 0.595355 0.000000
1.373934 0.626066 0.000000
1.179290 0.179290 0.000000
1.268934 0.268934 0.000000
1.089645 0.089645 0.000000
1.820710 0.179290 0.000000
1.731066 0.268934 0.000000
1.910355 0.089645 0.000000
1.820710 0.820710 0.000000
1.731066 0.731066 0.000000
1.910355 0.910355 0.000000
1.179290 0.820710 0.000000
1.268934 0.731066 0.000000
1.089645 0.910355 0.000000
2.500000 0.000000 0.000000
2.250000 0.000000 0.000000
2.750000 0.000000 0.000000
3.000000 0.500000 0.000000
3.000000 0.250000 0.000000
3.000000 0.750000 0.000000
2.500000 1.000000 0.000000
2.750000 1.000000 0.000000
2.250000 1.000000 0.000000
2.500000 0.420000 0.000000
2.460000 0.420000 0.000000
2.540000 0.420000 0.000000
2.580000 0.500000 0.000000
2.580000 0.460000 0.000000
2.580000 0.540000 0.000000
2.500000 0.580000 0.000000
2.540000 0.580000 0.000000
2.460000 0.580000 0.000000
2.420000 0.500000 0.000000
2.420000 0.540000 0.000000
2.420000 0.460000 0.000000
2.500000 0.300001 0.000000
[...]
POINT_DATA 2645
VECTORS sol double
+0.000000 +0.000000 0
+0.000000 +0.000000 0
-0.058953 -0.114388 0
+0.000000 +0.000000 0
-0.045075 -0.087460 0
-0.051428 -0.098183 0
-0.062325 -0.120931 0
-0.054226 -0.106820 0
-0.033271 -0.064556 0
-0.042589 -0.080092 0
-0.061477 -0.119285 0
-0.047027 -0.093793 0
+0.000000 +0.000000 0
+0.039835 +0.122861 0
-0.020920 -0.004091 0
-0.010102 +0.021299 0
-0.012045 +0.023272 0
-0.025790 -0.009145 0
-0.020071 -0.010640 0
-0.004182 +0.026580 0
-0.005423 +0.034523 0
-0.029910 -0.023348 0
+0.000000 +0.000000 0
+0.036785 +0.071515 0
+0.063104 +0.163426 0
+0.062637 +0.155562 0
+0.075431 +0.187374 0
+0.075989 +0.196759 0
+0.049853 +0.131488 0
+0.049151 +0.119674 0
+0.069933 +0.170497 0
+0.070901 +0.186780 0
+0.000000 +0.000000 0
-0.063873 -0.197205 0
-0.016667 -0.089207 0
-0.027773 -0.119437 0
-0.033664 -0.141680 0
-0.019576 -0.103492 0
-0.009385 -0.060996 0
-0.025705 -0.105488 0
-0.037259 -0.147052 0
-0.012177 -0.079171 0
+0.000000 +0.000000 0
+0.000000 +0.000000 0
-0.055944 -0.174207 0
-0.048837 -0.150781 0
-0.058527 -0.179217 0
-0.067526 -0.208484 0
-0.046500 -0.145915 0
-0.036048 -0.111295 0
-0.050596 -0.153862 0
-0.066607 -0.205647 0
-0.039610 -0.122424 0
+0.000000 +0.000000 0
-0.084560 -0.200575 0
-0.097091 -0.229285 0
-0.093369 -0.227811 0
-0.081410 -0.198863 0
-0.069418 -0.162997 0
-0.090388 -0.210070 0
-0.083957 -0.207950 0
-0.064671 -0.160177 0
+0.022271 +0.043212 0
-0.043537 -0.084477 0
-0.022991 -0.033503 0
-0.022905 -0.044443 0
-0.042357 -0.093295 0
-0.046259 -0.089758 0
-0.011780 -0.004586 0
-0.012370 -0.024001 0
-0.043635 -0.102938 0
+0.024129 +0.074498 0
+0.113576 +0.290061 0
+0.113306 +0.285508 0
+0.108315 +0.273884 0
+0.108440 +0.275995 0
+0.100367 +0.258447 0
+0.099831 +0.249428 0
+0.091795 +0.232091 0
+0.091905 +0.233932 0
-0.036541 -0.070762 0
-0.026464 -0.091959 0
-0.047171 -0.145638 0
-0.044338 -0.126641 0
-0.024816 -0.076620 0
-0.015319 -0.064161 0
-0.050120 -0.154742 0
-0.044721 -0.121210 0
-0.013402 -0.041378 0
+0.000000 +0.000000 0
-0.099473 -0.269372 0
-0.086510 -0.233407 0
-0.082483 -0.216912 0
-0.094636 -0.249132 0
-0.093078 -0.255360 0
-0.071251 -0.193862 0
-0.065214 -0.169324 0
-0.084662 -0.219816 0
+0.036541 +0.070762 0
+0.000000 +0.000000 0
-0.008350 -0.057185 0
-0.009992 -0.068703 0
+0.003927 -0.033393 0
+0.003313 -0.027597 0
-0.010743 -0.055601 0
-0.014895 -0.078110 0
+0.009254 -0.016849 0
+0.006777 -0.011154 0
-0.024129 -0.074498 0
-0.007920 -0.085054 0
-0.005906 -0.077045 0
-0.002776 -0.069104 0
-0.001168 -0.067924 0
-0.010698 -0.084459 0
-0.005044 -0.065394 0
-0.002314 -0.058468 0
+0.002678 -0.050526 0
-0.022271 -0.043212 0
+0.039610 +0.122424 0
+0.002776 +0.069104 0
+0.001168 +0.067924 0
+0.007920 +0.085054 0
+0.005906 +0.077045 0
+0.002314 +0.058468 0
-0.002678 +0.050526 0
+0.010698 +0.084459 0
+0.005044 +0.065394 0
+0.000000 +0.000000 0
-0.003927 +0.033393 0
-0.003313 +0.027597 0
+0.008350 +0.057185 0
+0.009992 +0.068703 0
-0.009254 +0.016849 0
-0.006777 +0.011154 0
+0.010743 +0.055601 0
+0.014895 +0.078110 0
+0.063873 +0.197205 0
+0.000000 +0.000000 0
+0.082483 +0.216912 0
+0.094636 +0.249132 0
+0.099473 +0.269372 0
+0.086510 +0.233407 0
+0.065214 +0.169324 0
+0.084662 +0.219816 0
+0.093078 +0.255360 0
+0.071251 +0.193862 0
-0.036785 -0.071515 0
+0.044338 +0.126641 0
+0.024816 +0.076620 0
+0.026464 +0.091959 0
+0.047171 +0.145638 0
+0.044721 +0.121210 0
+0.013402 +0.041378 0
+0.015319 +0.064161 0
+0.050120 +0.154742 0
-0.039835 -0.122861 0
-0.108315 -0.273884 0
-0.108440 -0.275995 0
-0.113576 -0.290061 0
-0.113306 -0.285508 0
-0.091795 -0.232091 0
-0.091905 -0.233932 0
-0.100367 -0.258447 0
-0.099831 -0.249428 0
+0.058953 +0.114388 0
+0.022905 +0.044443 0
+0.042357 +0.093295 0
+0.043537 +0.084477 0
+0.022991 +0.033503 0
+0.012370 +0.024001 0
+0.043635 +0.102938 0
+0.046259 +0.089758 0
+0.011780 +0.004586 0
+0.000000 +0.000000 0
+0.093369 +0.227811 0
+0.081410 +0.198863 0
+0.084560 +0.200575 0
+0.097091 +0.229285 0
+0.083957 +0.207950 0
+0.064671 +0.160177 0
+0.069418 +0.162997 0
+0.090388 +0.210070 0
+0.000000 +0.000000 0
+0.000000 +0.000000 0
+0.058527 +0.179217 0
+0.067526 +0.208484 0
+0.055944 +0.174207 0
+0.048837 +0.150781 0
+0.050596 +0.153862 0
+0.066607 +0.205647 0
+0.046500 +0.145915 0
+0.036048 +0.111295 0
+0.000000 +0.000000 0
+0.033664 +0.141680 0
+0.019576 +0.103492 0
+0.016667 +0.089207 0
+0.027773 +0.119437 0
+0.037259 +0.147052 0
+0.012177 +0.079171 0
+0.009385 +0.060996 0
+0.025705 +0.105488 0
+0.000000 +0.000000 0
-0.075431 -0.187374 0
-0.075989 -0.196759 0
-0.063104 -0.163426 0
-0.062637 -0.155562 0
-0.069933 -0.170497 0
-0.070901 -0.186780 0
-0.049853 -0.131488 0
-0.049151 -0.119674 0
+0.000000 +0.000000 0
+0.012045 -0.023272 0
+0.025790 +0.009145 0
+0.020920 +0.004091 0
+0.010102 -0.021299 0
+0.005423 -0.034523 0
+0.029910 +0.023348 0
+0.020071 +0.010640 0
+0.004182 -0.026580 0
+0.000000 +0.000000 0
+0.062325 +0.120931 0
+0.054226 +0.106820 0
+0.045075 +0.087460 0
+0.051428 +0.098183 0
+0.061477 +0.119285 0
+0.047027 +0.093793 0
+0.033271 +0.064556 0
+0.042589 +0.080092 0
+0.000000 +0.000000 0
+0.000000 +0.000000 0
+0.000000 +0.000000 0
-0.039340 -0.063968 0
-0.021416 -0.033363 0
-0.050858 -0.089499 0
-0.060897 -0.130525 0
-0.066869 -0.138930 0
-0.035697 -0.077454 0
+0.000000 +0.000000 0
+0.000000 +0.000000 0
+0.000000 +0.000000 0
-0.050002 -0.096356 0
-0.047951 -0.092744 0
-0.051167 -0.098178 0
-0.058524 -0.112546 0
-0.055355 -0.106047 0
-0.060857 -0.117529 0
-0.060283 -0.117979 0
-0.061820 -0.120504 0
-0.057725 -0.113366 0
-0.051161 -0.099933 0
-0.053090 -0.104115 0
-0.048467 -0.094337 0
-0.034899 -0.066710 0
-0.033659 -0.064855 0
-0.038127 -0.072276 0
-0.053724 -0.101150 0
-0.048215 -0.090419 0
-0.058640 -0.111893 0
-0.059116 -0.117796 0
-0.061932 -0.122056 0
-0.053677 -0.107285 0
-0.036652 -0.072122 0
-0.041099 -0.081449 0
-0.034452 -0.067303 0
-0.039427 -0.076502 0
-0.042304 -0.082084 0
-0.036369 -0.070567 0
-0.047464 -0.089984 0
-0.049559 -0.094293 0
-0.045152 -0.085257 0
-0.062478 -0.121227 0
-0.062532 -0.121332 0
-0.062162 -0.120616 0
-0.051145 -0.101350 0
-0.052818 -0.104353 0
-0.049254 -0.097922 0
-0.008123 -0.015762 0
-0.018698 -0.036280 0
-0.002064 -0.004004 0
-0.018324 -0.032020 0
-0.029530 -0.053953 0
-0.008586 -0.014214 0
-0.060125 -0.116662 0
-0.059853 -0.116135 0
-0.060058 -0.116532 0
-0.024486 -0.051045 0
-0.035363 -0.071961 0
-0.012850 -0.027380 0
+0.000000 +0.000000 0
+0.000000 +0.000000 0
+0.000000 +0.000000 0
+0.027913 +0.092987 0
+0.015354 +0.051923 0
+0.035350 +0.114151 0
-0.020950 -0.014219 0
+0.008592 +0.054016 0
-0.043543 -0.071559 0
-0.016091 +0.008603 0
-0.018682 +0.002176 0
-0.013206 +0.015030 0
-0.011448 +0.023113 0
-0.010861 +0.022403 0
-0.011846 +0.023399 0
-0.019588 +0.006971 0
-0.015943 +0.015191 0
-0.022892 -0.001200 0
-0.023966 -0.006334 0
-0.025038 -0.007674 0
-0.022582 -0.005135 0
-0.011174 +0.007022 0
-0.015299 -0.001614 0
-0.007677 +0.016230 0
+0.000028 +0.042732 0
-0.001495 +0.036090 0
-0.001218 +0.042603 0
-0.019426 +0.002890 0
-0.011959 +0.020329 0
-0.025925 -0.012754 0
-0.029021 -0.025522 0
-0.030999 -0.027594 0
-0.024944 -0.018900 0
-0.020779 -0.007682 0
-0.020927 -0.005985 0
-0.020537 -0.009339 0
-0.007084 +0.024429 0
-0.008568 +0.023007 0
-0.005565 +0.025750 0
-0.008863 +0.029058 0
-0.010498 +0.026170 0
-0.007185 +0.031828 0
-0.028079 -0.016314 0
-0.026977 -0.012716 0
-0.029069 -0.019862 0
-0.012826 -0.015063 0
-0.016875 -0.014922 0
-0.007189 -0.009906 0
+0.004648 +0.025600 0
+0.001637 +0.028304 0
+0.004004 +0.016074 0
+0.016188 +0.074402 0
+0.005137 +0.052949 0
+0.027760 +0.097872 0
-0.043913 -0.068634 0
-0.036262 -0.045242 0
-0.051610 -0.091841 0
+0.000000 +0.000000 0
+0.000000 +0.000000 0
+0.000000 +0.000000 0
+0.024810 +0.040764 0
+0.013539 +0.021373 0
+0.031926 +0.056519 0
+0.077697 +0.197107 0
+0.064868 +0.153643 0
+0.066396 +0.179357 0
+0.065131 +0.165228 0
+0.064677 +0.165764 0
+0.064441 +0.161790 0
+0.071103 +0.176623 0
+0.067347 +0.167283 0
+0.073810 +0.183352 0
+0.078297 +0.198629 0
+0.077499 +0.194591 0
+0.077780 +0.199330 0
+0.071629 +0.185468 0
+0.074355 +0.192522 0
+0.067847 +0.175687 0
+0.045526 +0.115492 0
+0.046998 +0.121652 0
+0.046659 +0.115945 0
+0.058296 +0.139048 0
+0.053427 +0.128234 0
+0.064277 +0.154358 0
+0.076519 +0.194119 0
+0.074618 +0.185475 0
+0.075153 +0.194474 0
+0.059533 +0.159870 0
+0.065494 +0.174854 0
+0.054449 +0.145432 0
+0.056949 +0.148748 0
+0.060138 +0.156398 0
+0.053501 +0.140425 0
+0.056351 +0.138681 0
+0.059601 +0.147364 0
+0.052844 +0.129357 0
+0.073390 +0.180687 0
+0.074580 +0.184455 0
+0.071888 +0.176146 0
+0.074158 +0.193624 0
+0.075244 +0.195630 0
+0.072759 +0.190806 0
+0.017841 +0.051214 0
+0.032004 +0.087260 0
+0.007355 +0.022581 0
+0.017009 +0.037196 0
+0.031155 +0.072966 0
+0.006807 +0.013347 0
+0.053733 +0.120952 0
+0.060944 +0.143486 0
+0.045926 +0.097539 0
+0.055882 +0.157127 0
+0.062500 +0.169676 0
+0.048580 +0.142208 0
+0.000000 +0.000000 0
+0.000000 +0.000000 0
+0.000000 +0.000000 0
-0.044353 -0.148349 0
-0.024349 -0.082736 0
-0.056387 -0.182569 0
-0.026396 -0.105892 0
-0.048986 -0.163174 0
+0.004084 -0.021858 0
-0.023006 -0.107786 0
-0.019996 -0.099259 0
-0.025618 -0.114559 0
-0.031586 -0.134593 0
-0.029879 -0.127951 0
-0.032851 -0.139184 0
-0.027515 -0.126465 0
-0.030849 -0.135132 0
-0.023727 -0.115827 0
-0.018744 -0.099705 0
-0.019323 -0.102471 0
-0.017851 -0.095242 0
-0.016123 -0.076271 0
-0.012672 -0.067854 0
-0.020503 -0.089210 0
-0.035751 -0.138795 0
-0.031152 -0.123407 0
-0.038141 -0.147805 0
-0.026725 -0.119967 0
-0.033343 -0.137601 0
-0.019048 -0.098989 0
-0.005940 -0.057729 0
-0.007611 -0.065002 0
-0.007075 -0.057833 0
-0.013016 -0.075420 0
-0.014828 -0.082360 0
-0.011143 -0.068135 0
-0.027079 -0.113726 0
-0.027517 -0.116911 0
-0.026519 -0.110036 0
-0.035763 -0.145644 0
-0.034772 -0.143932 0
-0.036607 -0.146751 0
-0.016073 -0.092317 0
-0.017885 -0.098174 0
-0.014188 -0.086047 0
+0.002716 -0.006917 0
-0.001741 -0.028568 0
+0.003176 +0.002141 0
-0.015270 -0.056214 0
-0.020777 -0.080596 0
-0.008355 -0.029527 0
-0.049896 -0.169348 0
-0.042803 -0.155335 0
-0.057078 -0.183885 0
+0.011524 -0.004099 0
-0.000447 -0.041052 0
+0.023920 +0.033235 0
+0.000000 +0.000000 0
+0.000000 +0.000000 0
+0.000000 +0.000000 0
+0.000000 +0.000000 0
+0.000000 +0.000000 0
+0.000000 +0.000000 0
-0.064250 -0.186956 0
-0.037530 -0.108312 0
-0.071165 -0.211242 0
-0.054268 -0.168163 0
-0.055592 -0.172654 0
-0.051994 -0.160802 0
-0.055337 -0.170238 0
-0.052470 -0.161726 0
-0.057367 -0.176098 0
-0.065173 -0.200288 0
-0.062353 -0.191256 0
-0.066902 -0.206047 0
-0.063549 -0.197137 0
-0.066013 -0.204322 0
-0.060165 -0.187010 0
-0.037952 -0.118103 0
-0.041548 -0.129850 0
-0.036532 -0.113211 0
-0.039570 -0.121242 0
-0.037264 -0.114631 0
-0.044290 -0.135171 0
-0.063617 -0.193559 0
-0.057719 -0.175312 0
-0.066836 -0.204611 0
-0.058640 -0.183904 0
-0.063798 -0.198716 0
-0.052677 -0.165529 0
-0.051721 -0.161634 0
-0.053957 -0.168314 0
-0.049250 -0.154227 0
-0.042718 -0.131889 0
-0.045835 -0.141513 0
-0.039404 -0.121658 0
-0.055118 -0.168227 0
-0.056964 -0.174150 0
-0.053036 -0.161573 0
-0.067692 -0.208995 0
-0.067750 -0.209176 0
-0.067350 -0.207941 0
-0.020348 -0.066085 0
-0.032463 -0.103315 0
-0.009645 -0.032035 0
-0.008801 -0.027174 0
-0.020258 -0.062546 0
-0.002236 -0.006903 0
-0.026035 -0.077120 0
-0.037846 -0.113761 0
-0.013581 -0.039672 0
-0.065142 -0.201124 0
-0.064848 -0.200216 0
-0.065070 -0.200901 0
-0.067032 -0.156496 0
-0.066084 -0.141154 0
-0.056519 -0.147010 0
-0.039782 -0.116017 0
-0.044084 -0.131098 0
-0.023233 -0.067213 0
+0.000000 +0.000000 0
+0.000000 +0.000000 0
+0.000000 +0.000000 0
-0.093999 -0.222556 0
-0.090024 -0.213358 0
-0.096362 -0.227883 0
-0.098006 -0.235143 0
-0.098242 -0.233839 0
-0.096362 -0.233100 0
-0.090472 -0.220870 0
-0.092715 -0.226281 0
-0.086665 -0.211637 0
-0.085526 -0.205773 0
-0.084087 -0.203811 0
-0.085678 -0.204670 0
-0.082700 -0.191255 0
-0.076374 -0.177690 0
-0.087758 -0.202835 0
-0.090181 -0.215562 0
-0.091394 -0.214885 0
-0.087859 -0.214010 0
-0.074379 -0.186996 0
-0.079618 -0.199453 0
-0.069477 -0.173800 0
-0.061219 -0.147490 0
-0.061945 -0.151319 0
-0.064240 -0.152718 0
-0.077679 -0.183359 0
-0.081288 -0.192345 0
-0.073730 -0.173569 0
-0.094627 -0.221776 0
-0.096067 -0.226029 0
-0.092779 -0.216565 0
-0.089507 -0.219928 0
-0.091639 -0.224350 0
-0.086983 -0.214544 0
-0.073641 -0.181061 0
-0.077667 -0.190331 0
-0.069286 -0.170986 0
-0.029953 -0.067942 0
-0.047946 -0.110853 0
-0.014239 -0.031672 0
-0.072806 -0.157840 0
-0.080056 -0.180454 0
-0.066079 -0.136514 0
-0.058768 -0.157020 0
-0.069801 -0.178418 0
-0.048967 -0.139019 0
-0.024260 -0.063654 0
-0.042171 -0.106953 0
-0.010476 -0.028631 0
+0.042537 +0.116431 0
+0.043286 +0.126286 0
+0.034378 +0.085166 0
-0.016558 -0.066022 0
+0.002191 -0.014211 0
-0.030456 -0.101390 0
-0.034436 -0.061263 0
-0.039334 -0.073578 0
-0.028943 -0.047795 0
-0.023734 -0.040290 0
-0.023558 -0.037193 0
-0.023514 -0.042727 0
-0.033780 -0.071307 0
-0.028568 -0.058331 0
-0.038410 -0.083045 0
-0.044119 -0.091160 0
-0.043524 -0.092814 0
-0.044118 -0.088347 0
-0.029852 -0.045438 0
-0.039051 -0.069070 0
-0.020291 -0.022884 0
-0.004312 +0.005378 0
-0.006213 +0.005295 0
-0.006882 -0.005787 0
-0.028276 -0.068610 0
-0.020075 -0.046520 0
-0.036464 -0.088103 0
-0.051620 -0.112645 0
-0.049039 -0.111640 0
-0.050736 -0.105148 0
-0.045342 -0.087978 0
-0.044539 -0.086420 0
-0.045954 -0.089166 0
-0.017514 -0.019095 0
-0.020290 -0.026327 0
-0.014656 -0.011763 0
-0.017708 -0.034359 0
-0.020320 -0.039428 0
-0.015011 -0.029127 0
-0.043471 -0.099237 0
-0.043029 -0.096534 0
-0.043726 -0.101518 0
-0.053527 -0.103861 0
-0.049405 -0.095863 0
-0.056852 -0.110311 0
+0.017575 +0.069396 0
+0.003642 +0.034238 0
+0.029569 +0.098808 0
+0.011212 +0.021756 0
+0.000763 +0.001480 0
+0.018272 +0.035454 0
-0.043959 -0.120589 0
-0.043731 -0.112025 0
-0.042673 -0.124235 0
+0.041345 +0.096368 0
+0.040982 +0.087492 0
+0.034664 +0.089985 0
+0.046990 +0.119207 0
+0.040267 +0.108709 0
+0.039350 +0.093268 0
+0.117391 +0.297805 0
+0.116456 +0.296409 0
+0.116320 +0.294112 0
+0.114123 +0.288066 0
+0.114544 +0.288881 0
+0.112023 +0.283008 0
+0.112199 +0.284634 0
+0.111198 +0.281641 0
+0.111262 +0.282710 0
+0.114326 +0.291481 0
+0.112188 +0.285787 0
+0.114782 +0.292889 0
+0.103823 +0.263385 0
+0.103132 +0.263963 0
+0.102806 +0.258474 0
+0.094023 +0.235114 0
+0.096935 +0.241696 0
+0.092775 +0.233392 0
+0.091602 +0.232382 0
+0.091900 +0.233051 0
+0.091912 +0.233255 0
+0.094500 +0.243146 0
+0.093050 +0.238021 0
+0.097524 +0.251621 0
+0.107959 +0.276743 0
+0.111002 +0.283986 0
+0.104447 +0.268305 0
+0.107558 +0.269994 0
+0.110668 +0.278362 0
+0.103981 +0.260449 0
+0.100942 +0.255168 0
+0.104838 +0.265033 0
+0.096599 +0.244173 0
+0.101069 +0.257308 0
+0.104968 +0.267217 0
+0.096723 +0.246260 0
+0.066016 +0.179168 0
+0.081137 +0.213219 0
+0.052610 +0.150015 0
+0.064380 +0.151629 0
+0.080104 +0.195827 0
+0.050294 +0.111038 0
+0.050701 +0.132037 0
+0.068785 +0.175227 0
+0.036148 +0.099345 0
+0.050223 +0.123995 0
+0.068684 +0.173514 0
+0.035079 +0.081348 0
-0.068929 -0.188420 0
-0.069791 -0.203542 0
-0.056011 -0.138463 0
-0.013198 -0.009463 0
-0.027080 -0.044571 0
+0.004956 +0.032341 0
-0.038087 -0.122717 0
-0.032528 -0.108148 0
-0.043001 -0.135295 0
-0.047024 -0.140059 0
-0.047416 -0.143863 0
-0.045986 -0.134261 0
-0.035793 -0.105192 0
-0.040423 -0.116943 0
-0.030547 -0.091637 0
-0.026521 -0.087201 0
-0.025882 -0.082586 0
-0.026716 -0.090347 0
-0.034090 -0.116776 0
-0.024292 -0.090218 0
-0.043248 -0.139712 0
-0.054181 -0.155759 0
-0.054033 -0.160639 0
-0.050825 -0.141701 0
-0.028713 -0.075964 0
-0.037080 -0.098468 0
-0.020692 -0.056902 0
-0.006595 -0.033048 0
-0.008515 -0.033275 0
-0.009159 -0.044293 0
-0.021059 -0.078759 0
-0.023808 -0.085544 0
-0.018212 -0.071617 0
-0.049126 -0.151673 0
-0.048256 -0.148988 0
-0.049789 -0.153722 0
-0.045016 -0.125245 0
-0.044796 -0.126267 0
-0.045043 -0.123679 0
-0.019185 -0.059234 0
-0.022016 -0.067974 0
-0.016264 -0.050215 0
+0.014104 +0.010971 0
+0.000145 -0.024632 0
+0.026239 +0.042770 0
-0.057995 -0.179056 0
-0.053529 -0.165267 0
-0.061596 -0.190175 0
-0.042690 -0.099229 0
-0.043580 -0.109472 0
-0.040438 -0.086606 0
+0.012148 +0.037507 0
+0.000826 +0.002551 0
+0.019797 +0.061122 0
+0.000000 +0.000000 0
+0.000000 +0.000000 0
+0.000000 +0.000000 0
-0.037670 -0.080468 0
-0.022076 -0.047732 0
-0.041389 -0.085736 0
-0.096224 -0.260012 0
-0.098681 -0.266916 0
-0.092125 -0.248730 0
-0.087092 -0.232134 0
-0.087453 -0.234539 0
-0.085417 -0.226198 0
-0.091681 -0.241227 0
-0.087815 -0.230996 0
-0.093964 -0.247297 0
-0.099893 -0.266903 0
-0.097951 -0.259848 0
-0.100394 -0.270074 0
-0.085295 -0.234928 0
-0.090528 -0.249453 0
-0.078621 -0.215513 0
-0.062313 -0.165895 0
-0.065674 -0.176857 0
-0.062760 -0.165040 0
-0.074616 -0.190982 0
-0.069820 -0.179578 0
-0.079972 -0.205406 0
-0.092029 -0.246680 0
-0.089101 -0.234917 0
-0.093768 -0.254847 0
-0.097184 -0.264822 0
-0.098540 -0.267663 0
-0.095410 -0.260848 0
-0.079596 -0.215627 0
-0.083228 -0.225009 0
-0.075615 -0.205297 0
-0.074446 -0.194614 0
-0.078604 -0.206106 0
-0.069955 -0.182251 0
-0.090506 -0.236741 0
-0.092776 -0.243487 0
-0.087839 -0.228954 0
-0.076564 -0.221092 0
-0.083223 -0.233764 0
-0.070433 -0.209798 0
-0.031078 -0.086887 0
-0.049454 -0.136240 0
-0.014862 -0.042153 0
-0.023965 -0.058688 0
-0.042176 -0.107024 0
-0.010188 -0.023790 0
-0.057658 -0.138335 0
-0.069613 -0.175256 0
-0.046897 -0.104173 0
-0.003112 -0.052388 0
-0.021698 -0.092627 0
+0.016439 +0.004121 0
+0.037670 +0.080468 0
+0.041389 +0.085736 0
+0.022076 +0.047732 0
+0.000000 +0.000000 0
+0.000000 +0.000000 0
+0.000000 +0.000000 0
-0.009417 -0.064757 0
-0.008940 -0.061388 0
-0.009767 -0.067200 0
-0.003136 -0.052793 0
-0.006624 -0.061264 0
+0.000404 -0.043434 0
+0.003700 -0.031481 0
+0.003832 -0.032701 0
+0.003524 -0.029768 0
-0.002609 -0.043915 0
+0.000361 -0.036054 0
-0.005533 -0.051005 0
-0.017800 -0.078894 0
-0.014914 -0.068722 0
-0.017798 -0.082307 0
-0.003065 -0.051594 0
-0.009672 -0.067420 0
+0.003673 -0.033565 0
+0.013080 -0.000554 0
+0.012600 -0.005193 0
+0.010593 -0.004015 0
-0.001824 -0.030696 0
+0.002356 -0.020840 0
-0.006107 -0.042310 0
-0.009734 -0.057135 0
-0.009097 -0.057362 0
-0.010337 -0.056672 0
-0.012549 -0.074080 0
-0.011288 -0.071533 0
-0.013768 -0.076344 0
+0.006638 -0.025406 0
+0.005286 -0.029488 0
+0.007974 -0.021186 0
+0.005196 -0.019259 0
+0.004301 -0.023373 0
+0.006077 -0.015032 0
-0.011093 -0.038120 0
-0.011865 -0.048183 0
-0.007131 -0.022145 0
-0.029021 -0.105007 0
-0.021893 -0.090886 0
-0.035018 -0.115894 0
+0.024630 +0.031098 0
+0.016949 +0.007652 0
+0.031232 +0.052172 0
+0.009697 +0.014622 0
+0.009335 +0.005597 0
+0.006563 +0.012595 0
-0.001882 -0.031683 0
+0.009856 +0.002207 0
-0.013045 -0.055890 0
+0.013198 +0.009463 0
-0.004956 -0.032341 0
+0.027080 +0.044571 0
-0.007108 -0.083442 0
-0.007565 -0.084852 0
-0.006551 -0.080816 0
-0.004494 -0.075651 0
-0.005248 -0.077008 0
-0.003663 -0.072988 0
-0.002043 -0.070593 0
-0.002430 -0.070361 0
-0.001621 -0.069773 0
-0.004702 -0.079152 0
-0.002959 -0.074154 0
-0.006366 -0.082798 0
-0.009732 -0.078667 0
-0.011255 -0.084229 0
-0.007154 -0.071354 0
-0.003669 -0.061763 0
-0.003832 -0.062351 0
-0.003531 -0.061586 0
+0.002180 -0.048447 0
-0.000289 -0.053940 0
+0.003465 -0.046887 0
-0.004159 -0.070004 0
-0.000054 -0.059102 0
-0.008195 -0.079754 0
-0.009322 -0.085354 0
-0.008610 -0.085311 0
-0.010000 -0.085047 0
-0.005633 -0.072129 0
-0.005822 -0.074841 0
-0.005419 -0.069099 0
-0.002459 -0.064079 0
-0.002582 -0.066623 0
-0.002325 -0.061250 0
+0.000689 -0.059960 0
-0.000270 -0.064153 0
+0.001651 -0.055488 0
-0.023033 -0.095767 0
-0.016126 -0.087076 0
-0.030965 -0.108017 0
+0.003942 -0.018896 0
-0.001483 -0.043123 0
+0.011919 +0.009843 0
-0.007985 -0.049153 0
-0.004023 -0.049567 0
-0.014772 -0.057869 0
+0.017810 +0.007846 0
+0.009667 -0.021642 0
+0.026843 +0.038633 0
+0.001882 +0.031683 0
+0.013045 +0.055890 0
-0.009856 -0.002207 0
-0.046990 -0.119207 0
-0.039350 -0.093268 0
-0.040267 -0.108709 0
+0.003112 +0.052388 0