# vtk DataFile Version 2.0
MyTitle
ASCII
DATASET UNSTRUCTURED_GRID
POINTS 2645 double
0.000000 0.000000 0.000000
1.000000 0.000000 0.000000
1.000000 1.000000 0.000000
0.000000 1.000000 0.000000
0.420000 0.420000 0.000000
0.580000 0.420000 0.000000
0.580000 0.580000 0.000000
0.420000 0.580000 0.000000
0.358579 0.358579 0.000000
0.641421 0.358579 0.000000
0.641421 0.641421 0.000000
0.358579 0.641421 0.000000
2.000000 0.000000 0.000000
2.000000 1.000000 0.000000
1.420000 0.420000 0.000000
1.580000 0.420000 0.000000
1.580000 0.580000 0.000000
1.420000 0.580000 0.000000
1.358579 0.358579 0.000000
1.641421 0.358579 0.000000
1.641421 0.641421 0.000000
1.358579 0.641421 0.000000
3.000000 0.000000 0.000000
3.000000 1.000000 0.000000
2.420000 0.420000 0.000000
2.580000 0.420000 0.000000
2.580000 0.580000 0.000000
2.420000 0.580000 0.000000
2.358579 0.358579 0.000000
2.641421 0.358579 0.000000
2.641421 0.641421 0.000000
2.358579 0.641421 0.000000
4.000000 0.000000 0.000000
4.000000 1.000000 0.000000
3.420000 0.420000 0.000000
3.580000 0.420000 0.000000
3.580000 0.580000 0.000000
3.420000 0.580000 0.000000
3.358579 0.358579 0.000000
3.641421 0.358579 0.000000
3.641421 0.641421 0.000000
3.358579 0.641421 0.000000
5.000000 0.000000 0.000000
5.000000 1.000000 0.000000
4.420000 0.420000 0.000000
4.580000 0.420000 0.000000
4.580000 0.580000 0.000000
4.420000 0.580000 0.000000
4.358579 0.358579 0.000000
4.641421 0.358579 0.000000
4.641421 0.641421 0.000000
4.358579 0.641421 0.000000
1.000000 2.000000 0.000000
0.000000 2.000000 0.000000
0.420000 1.420000 0.000000
0.580000 1.420000 0.000000
0.580000 1.580000 0.000000
0.420000 1.580000 0.000000
0.358579 1.358579 0.000000
0.641421 1.358579 0.000000
0.641421 1.641421 0.000000
0.358579 1.641421 0.000000
2.000000 2.000000 0.000000
1.420000 1.420000 0.000000
1.580000 1.420000 0.000000
1.580000 1.580000 0.000000
1.420000 1.580000 0.000000
1.358579 1.358579 0.000000
1.641421 1.358579 0.000000
1.641421 1.641421 0.000000
1.358579 1.641421 0.000000
3.000000 2.000000 0.000000
2.420000 1.420000 0.000000
2.580000 1.420000 0.000000
2.580000 1.580000 0.000000
2.420000 1.580000 0.000000
2.358579 1.358579 0.000000
2.641421 1.358579 0.000000
2.641421 1.641421 0.000000
2.358579 1.641421 0.000000
4.000000 2.000000 0.000000
3.420000 1.420000 0.000000
3.580000 1.420000 0.000000
3.580000 1.580000 0.000000
3.420000 1.580000 0.000000
3.358579 1.358579 0.000000
3.641421 1.358579 0.000000
3.641421 1.641421 0.000000
3.358579 1.641421 0.000000
5.000000 2.000000 0.000000
4.420000 1.420000 0.000000
4.580000 1.420000 0.000000
4.580000 1.580000 0.000000
4.420000 1.580000 0.000000
4.358579 1.358579 0.000000
4.641421 1.358579 0.000000
4.641421 1.641421 0.000000
4.358579 1.641421 0.000000
1.000000 3.000000 0.000000
0.000000 3.000000 0.000000
0.420000 2.420000 0.000000
0.580000 2.420000 0.000000
0.580000 2.580000 0.000000
0.420000 2.580000 0.000000
0.358579 2.358579 0.000000
0.641421 2.358579 0.000000
0.641421 2.641421 0.000000
0.358579 2.641421 0.000000
2.000000 3.000000 0.000000
1.420000 2.420000 0.000000
1.580000 2.420000 0.000000
1.580000 2.580000 0.000000
1.420000 2.580000 0.000000
1.358579 2.358579 0.000000
1.641421 2.358579 0.000000
1.641421 2.641421 0.000000
1.358579 2.641421 0.000000
3.000000 3.000000 0.000000
4.000000 3.000000 0.000000
3.420000 2.420000 0.000000
3.580000 2.420000 0.000000
3.580000 2.580000 0.000000
3.420000 2.580000 0.000000
3.358579 2.358579 0.000000
3.641421 2.358579 0.000000
3.641421 2.641421 0.000000
3.358579 2.641421 0.000000
5.000000 3.000000 0.000000
4.420000 2.420000 0.000000
4.580000 2.420000 0.000000
4.580000 2.580000 0.000000
4.420000 2.580000 0.000000
4.358579 2.358579 0.000000
4.641421 2.358579 0.000000
4.641421 2.641421 0.000000
4.358579 2.641421 0.000000
1.000000 4.000000 0.000000
0.000000 4.000000 0.000000
0.420000 3.420000 0.000000
0.580000 3.420000 0.000000
0.580000 3.580000 0.000000
0.420000 3.580000 0.000000
0.358579 3.358579 0.000000
0.641421 3.358579 0.000000
0.641421 3.641421 0.000000
0.358579 3.641421 0.000000
2.000000 4.000000 0.000000
1.420000 3.420000 0.000000
1.580000 3.420000 0.000000
1.580000 3.580000 0.000000
1.420000 3.580000 0.000000
1.358579 3.358579 0.000000
1.641421 3.358579 0.000000
1.641421 3.641421 0.000000
1.358579 3.641421 0.000000
3.000000 4.000000 0.000000
2.420000 3.420000 0.000000
2.580000 3.420000 0.000000
2.580000 3.580000 0.000000
2.420000 3.580000 0.000000
2.358579 3.358579 0.000000
2.641421 3.358579 0.000000
2.641421 3.641421 0.000000
2.358579 3.641421 0.000000
4.000000 4.000000 0.000000
3.420000 3.420000 0.000000
3.580000 3.420000 0.000000
3.580000 3.580000 0.000000
3.420000 3.580000 0.000000
3.358579 3.358579 0.000000
3.641421 3.358579 0.000000
3.641421 3.641421 0.000000
3.358579 3.641421 0.000000
5.000000 4.000000 0.000000
4.420000 3.420000 0.000000
4.580000 3.420000 0.000000
4.580000 3.580000 0.000000
4.420000 3.580000 0.000000
4.358579 3.358579 0.000000
4.641421 3.358579 0.000000
4.641421 3.641421 0.000000
4.358579 3.641421 0.000000
1.000000 5.000000 0.000000
0.000000 5.000000 0.000000
0.420000 4.420000 0.000000
0.580000 4.420000 0.000000
0.580000 4.580000 0.000000
0.420000 4.580000 0.000000
0.358579 4.358579 0.000000
0.641421 4.358579 0.000000
0.641421 4.641421 0.000000
0.358579 4.641421 0.000000
2.000000 5.000000 0.000000
1.420000 4.420000 0.000000
1.580000 4.420000 0.000000
1.580000 4.580000 0.000000
1.420000 4.580000 0.000000
1.358579 4.358579 0.000000
1.641421 4.358579 0.000000
1.641421 4.641421 0.000000
1.358579 4.641421 0.000000
3.000000 5.000000 0.000000
2.420000 4.420000 0.000000
2.580000 4.420000 0.000000
2.580000 4.580000 0.000000
2.420000 4.580000 0.000000
2.358579 4.358579 0.000000
2.641421 4.358579 0.000000
2.641421 4.641421 0.000000
2.358579 4.641421 0.000000
4.000000 5.000000 0.000000
3.420000 4.420000 0.000000
3.580000 4.420000 0.000000
3.580000 4.580000 0.000000
3.420000 4.580000 0.000000
3.358579 4.358579 0.000000
3.641421 4.358579 0.000000
3.641421 4.641421 0.000000
3.358579 4.641421 0.000000
5.000000 5.000000 0.000000
4.420000 4.420000 0.000000
4.580000 4.420000 0.000000
4.580000 4.580000 0.000000
4.420000 4.580000 0.000000
4.358579 4.358579 0.000000
4.641421 4.358579 0.000000
4.641421 4.641421 0.000000
4.358579 4.641421 0.000000
0.500000 0.000000 0.000000
0.250000 0.000000 0.000000
0.750000 0.000000 0.000000
1.000000 0.500000 0.000000
1.000000 0.250000 0.000000
1.000000 0.750000 0.000000
0.500000 1.000000 0.000000
0.750000 1.000000 0.000000
0.250000 1.000000 0.000000
0.000000 0.500000 0.000000
0.000000 0.750000 0.000000
0.000000 0.250000 0.000000
0.500000 0.420000 0.000000
0.460000 0.420000 0.000000
0.540000 0.420000 0.000000
0.580000 0.500000 0.000000
0.580000 0.460000 0.000000
0.580000 0.540000 0.000000
0.500000 0.580000 0.000000
0.540000 0.580000 0.000000
0.460000 0.580000 0.000000
0.420000 0.500000 0.000000
0.420000 0.540000 0.000000
0.420000 0.460000 0.000000
0.500000 0.300001 0.000000
0.423464 0.315225 0.000000
0.576536 0.315225 0.000000
0.699999 0.500000 0.000000
0.684775 0.423464 0.000000
0.684775 0.576536 0.000000
0.500000 0.699999 0.000000
0.576536 0.684775 0.000000
0.423464 0.684775 0.000000
0.300001 0.500000 0.000000
0.315225 0.576536 0.000000
0.315225 0.423464 0.000000
0.389290 0.389290 0.000000
0.404645 0.404645 0.000000
0.373934 0.373934 0.000000
0.610710 0.389290 0.000000
0.595355 0.404645 0.000000
0.626066 0.373934 0.000000
0.610710 0.610710 0.000000
0.595355 0.595355 0.000000
0.626066 0.626066 0.000000
0.389290 0.610710 0.000000
0.404645 0.595355 0.000000
0.373934 0.626066 0.000000
0.179290 0.179290 0.000000
0.268934 0.268934 0.000000
0.089645 0.089645 0.000000
0.820710 0.179290 0.000000
0.731066 0.268934 0.000000
0.910355 0.089645 0.000000
0.820710 0.820710 0.000000
0.731066 0.731066 0.000000
0.910355 0.910355 0.000000
0.179290 0.820710 0.000000
0.268934 0.731066 0.000000
0.089645 0.910355 0.000000
1.500000 0.000000 0.000000
1.250000 0.000000 0.000000
1.750000 0.000000 0.000000
2.000000 0.500000 0.000000
2.000000 0.250000 0.000000
2.000000 0.750000 0.000000
1.500000 1.000000 0.000000
1.750000 1.000000 0.000000
1.250000 1.000000 0.000000
1.500000 0.420000 0.000000
1.460000 0.420000 0.000000
1.540000 0.420000 0.000000
1.580000 0.500000 0.000000
1.580000 0.460000 0.000000
1.580000 0.540000 0.000000
1.500000 0.580000 0.000000
1.540000 0.580000 0.000000
1.460000 0.580000 0.000000
1.420000 0.500000 0.000000
1.420000 0.540000 0.000000
1.420000 0.460000 0.000000
1.500000 0.300001 0.000000
1.423464 0.315225 0.000000
1.576536 0.315225 0.000000
1.699999 0.500000 0.000000
1.684775 0.423464 0.000000
1.684775 0.576536 0.000000
1.500000 0.699999 0.000000
1.576536 0.684775 0.000000
1.423464 0.684775 0.000000
1.300001 0.500000 0.000000
1.315225 0.576536 0.000000
1.315225 0.423464 0.000000
1.389290 0.389290 0.000000
1.404645 0.404645 0.000000
1.373934 0.373934 0.000000
1.610710 0.389290 0.000000
1.595355 0.404645 0.000000
1.626066 0.373934 0.000000
1.610710 0.610710 0.000000
1.595355 0.595355 0.000000
1.626066 0.626066 0.000000
1.389290 0.610710 0.000000
1.404645 0.595355 0.000000
1.373934 0.626066 0.000000
1.179290 0.179290 0.000000
1.268934 0.268934 0.000000
1.089645 0.089645 0.000000
1.820710 0.179290 0.000000
1.731066 0.268934 0.000000
1.910355 0.089645 0.000000
1.820710 0.820710 0.000000
1.731066 0.731066 0.000000
1.910355 0.910355 0.000000
1.179290 0.820710 0.000000
1.268934 0.731066 0.000000
1.089645 0.910355 0.000000
2.500000 0.000000 0.000000
2.250000 0.000000 0.000000
2.750000 0.000000 0.000000
3.000000 0.500000 0.000000
3.000000 0.250000 0.000000
3.000000 0.750000 0.000000
2.500000 1.000000 0.000000
2.750000 1.000000 0.000000
2.250000 1.000000 0.000000
2.500000 0.420000 0.000000
2.460000 0.420000 0.000000
2.540000 0.420000 0.000000
2.580000 0.500000 0.000000
2.580000 0.460000 0.000000
2.580000 0.540000 0.000000
2.500000 0.580000 0.000000
2.540000 0.580000 0.000000
2.460000 0.580000 0.000000
2.420000 0.500000 0.000000
2.420000 0.540000 0.000000
2.420000 0.460000 0.000000
2.500000 0.300001 0.000000
[...]
POINT_DATA 2645
VECTORS sol double
+0.000000 +0.000000 0
+0.000000 +0.000000 0
-0.022816 +0.053038 0
+0.000000 +0.000000 0
-0.017445 +0.040552 0
-0.025208 +0.049593 0
-0.024121 +0.056072 0
-0.015683 +0.045460 0
-0.012877 +0.029933 0
-0.024896 +0.043591 0
-0.023793 +0.055308 0
-0.009787 +0.037034 0
+0.000000 +0.000000 0
-0.135196 +0.058592 0
-0.128744 +0.094465 0
-0.139096 +0.093847 0
-0.158835 +0.107500 0
-0.145155 +0.107953 0
-0.101320 +0.076712 0
-0.116293 +0.075661 0
-0.150984 +0.098227 0
-0.126229 +0.098794 0
+0.000000 +0.000000 0
+0.013774 -0.032804 0
-0.111040 +0.028159 0
-0.088224 +0.014161 0
-0.106365 +0.017129 0
-0.133593 +0.033834 0
-0.095584 +0.027175 0
-0.061311 +0.006147 0
-0.087971 +0.009209 0
-0.135211 +0.038192 0
+0.000000 +0.000000 0
+0.217460 -0.094377 0
+0.181516 -0.102857 0
+0.205909 -0.110854 0
+0.239371 -0.127963 0
+0.208946 -0.118143 0
+0.137792 -0.080227 0
+0.173862 -0.092119 0
+0.232673 -0.121401 0
+0.178875 -0.104150 0
+0.000000 +0.000000 0
+0.000000 +0.000000 0
+0.195362 -0.085732 0
+0.166268 -0.072160 0
+0.194363 -0.083408 0
+0.229898 -0.099775 0
+0.166076 -0.073575 0
+0.122727 -0.053263 0
+0.164491 -0.069890 0
+0.226769 -0.098417 0
+0.135283 -0.058795 0
+0.000000 +0.000000 0
+0.087921 +0.000432 0
+0.097597 +0.002599 0
+0.118037 -0.012662 0
+0.103679 -0.011517 0
+0.066686 +0.003798 0
+0.079672 +0.009434 0
+0.116392 -0.017814 0
+0.089646 -0.013716 0
+0.008619 -0.020036 0
-0.016850 +0.039169 0
-0.045612 +0.043703 0
-0.008865 +0.020607 0
+0.020321 +0.015089 0
-0.017903 +0.041618 0
-0.064950 +0.048462 0
-0.004787 +0.011129 0
+0.043503 +0.001393 0
-0.082150 +0.035653 0
-0.186376 +0.042233 0
-0.173167 +0.034129 0
-0.168686 +0.034598 0
-0.174809 +0.038355 0
-0.171711 +0.041717 0
-0.145545 +0.025663 0
-0.142886 +0.029275 0
-0.148227 +0.032552 0
-0.014605 +0.033165 0
+0.123985 -0.060349 0
+0.160596 -0.069699 0
+0.117067 -0.044268 0
+0.084490 -0.036668 0
+0.107895 -0.057583 0
+0.170636 -0.074056 0
+0.096516 -0.031131 0
+0.045628 -0.019803 0
+0.000000 +0.000000 0
+0.213902 -0.068757 0
+0.183177 -0.058009 0
+0.156044 -0.043644 0
+0.179896 -0.050614 0
+0.211070 -0.071183 0
+0.156234 -0.051142 0
+0.116185 -0.029999 0
+0.150822 -0.038938 0
+0.014605 -0.033165 0
+0.000000 +0.000000 0
+0.132231 -0.077420 0
+0.159135 -0.093209 0
+0.137078 -0.088525 0
+0.113748 -0.073494 0
+0.110720 -0.062361 0
+0.156886 -0.088578 0
+0.118618 -0.080451 0
+0.082956 -0.056464 0
+0.082150 -0.035653 0
+0.227267 -0.137288 0
+0.214492 -0.130601 0
+0.209532 -0.129548 0
+0.216566 -0.135015 0
+0.206415 -0.122389 0
+0.181843 -0.110698 0
+0.177517 -0.109779 0
+0.185218 -0.117887 0
-0.008619 +0.020036 0
-0.135283 +0.058795 0
-0.209532 +0.129548 0
-0.216566 +0.135015 0
-0.227267 +0.137288 0
-0.214492 +0.130601 0
-0.177517 +0.109779 0
-0.185218 +0.117887 0
-0.206415 +0.122389 0
-0.181843 +0.110698 0
+0.000000 +0.000000 0
-0.137078 +0.088525 0
-0.113748 +0.073494 0
-0.132231 +0.077420 0
-0.159135 +0.093209 0
-0.118618 +0.080451 0
-0.082956 +0.056464 0
-0.110720 +0.062361 0
-0.156886 +0.088578 0
-0.217460 +0.094377 0
+0.000000 +0.000000 0
-0.156044 +0.043644 0
-0.179896 +0.050614 0
-0.213902 +0.068757 0
-0.183177 +0.058009 0
-0.116185 +0.029999 0
-0.150822 +0.038938 0
-0.211070 +0.071183 0
-0.156234 +0.051142 0
-0.013774 +0.032804 0
-0.117067 +0.044268 0
-0.084490 +0.036668 0
-0.123985 +0.060349 0
-0.160596 +0.069699 0
-0.096516 +0.031131 0
-0.045628 +0.019803 0
-0.107895 +0.057583 0
-0.170636 +0.074056 0
+0.135196 -0.058592 0
+0.168686 -0.034598 0
+0.174809 -0.038355 0
+0.186376 -0.042233 0
+0.173167 -0.034129 0
+0.142886 -0.029275 0
+0.148227 -0.032552 0
+0.171711 -0.041717 0
+0.145545 -0.025663 0
+0.022816 -0.053038 0
+0.008865 -0.020607 0
-0.020321 -0.015089 0
+0.016850 -0.039169 0
+0.045612 -0.043703 0
+0.004787 -0.011129 0
-0.043503 -0.001393 0
+0.017903 -0.041618 0
+0.064950 -0.048462 0
+0.000000 +0.000000 0
-0.118037 +0.012662 0
-0.103679 +0.011517 0
-0.087921 -0.000432 0
-0.097597 -0.002599 0
-0.116392 +0.017814 0
-0.089646 +0.013716 0
-0.066686 -0.003798 0
-0.079672 -0.009434 0
+0.000000 +0.000000 0
+0.000000 +0.000000 0
-0.194363 +0.083408 0
-0.229898 +0.099775 0
-0.195362 +0.085732 0
-0.166268 +0.072160 0
-0.164491 +0.069890 0
-0.226769 +0.098417 0
-0.166076 +0.073575 0
-0.122727 +0.053263 0
+0.000000 +0.000000 0
-0.239371 +0.127963 0
-0.208946 +0.118143 0
-0.181516 +0.102857 0
-0.205909 +0.110854 0
-0.232673 +0.121401 0
-0.178875 +0.104150 0
-0.137792 +0.080227 0
-0.173862 +0.092119 0
+0.000000 +0.000000 0
+0.106365 -0.017129 0
+0.133593 -0.033834 0
+0.111040 -0.028159 0
+0.088224 -0.014161 0
+0.087971 -0.009209 0
+0.135211 -0.038192 0
+0.095584 -0.027175 0
+0.061311 -0.006147 0
+0.000000 +0.000000 0
+0.158835 -0.107500 0
+0.145155 -0.107953 0
+0.128744 -0.094465 0
+0.139096 -0.093847 0
+0.150984 -0.098227 0
+0.126229 -0.098794 0
+0.101320 -0.076712 0
+0.116293 -0.075661 0
+0.000000 +0.000000 0
+0.024121 -0.056072 0
+0.015683 -0.045460 0
+0.017445 -0.040552 0
+0.025208 -0.049593 0
+0.023793 -0.055308 0
+0.009787 -0.037034 0
+0.012877 -0.029933 0
+0.024896 -0.043591 0
+0.000000 +0.000000 0
+0.000000 +0.000000 0
+0.000000 +0.000000 0
-0.056094 +0.061017 0
-0.035362 +0.036242 0
-0.050036 +0.064786 0
+0.017300 +0.029164 0
+0.004473 +0.041129 0
+0.013258 +0.015141 0
+0.000000 +0.000000 0
+0.000000 +0.000000 0
+0.000000 +0.000000 0
-0.021549 +0.046362 0
-0.019536 +0.043753 0
-0.023448 +0.048319 0
-0.025986 +0.054744 0
-0.025918 +0.052619 0
-0.025380 +0.055896 0
-0.019995 +0.052143 0
-0.022099 +0.054472 0
-0.017847 +0.049116 0
-0.017604 +0.044650 0
-0.016901 +0.045478 0
-0.017780 +0.042991 0
-0.016830 +0.033481 0
-0.014530 +0.031225 0
-0.020389 +0.037834 0
-0.031014 +0.054742 0
-0.029016 +0.049870 0
-0.028936 +0.056669 0
-0.012658 +0.046776 0
-0.017728 +0.051805 0
-0.010418 +0.041799 0
-0.010862 +0.030891 0
-0.010273 +0.033443 0
-0.011831 +0.030053 0
-0.015259 +0.035471 0
-0.016373 +0.038060 0
-0.014075 +0.032720 0
-0.025349 +0.047078 0
-0.025358 +0.048460 0
-0.025251 +0.045498 0
-0.024180 +0.056209 0
-0.024201 +0.056258 0
-0.024058 +0.055926 0
-0.012815 +0.041638 0
-0.014264 +0.043645 0
-0.011286 +0.039437 0
-0.003144 +0.007308 0
-0.007236 +0.016822 0
-0.000799 +0.001857 0
-0.018774 +0.023810 0
-0.022486 +0.033500 0
-0.011407 +0.012793 0
-0.023270 +0.054092 0
-0.023164 +0.053848 0
-0.023244 +0.054032 0
+0.002206 +0.014705 0
-0.002629 +0.024882 0
+0.003111 +0.006492 0
+0.000000 +0.000000 0
+0.000000 +0.000000 0
+0.000000 +0.000000 0
-0.117532 +0.055351 0
-0.067211 +0.032052 0
-0.136909 +0.062614 0
-0.095471 +0.073623 0
-0.120111 +0.069662 0
-0.059586 +0.065967 0
-0.137861 +0.097008 0
-0.134240 +0.096440 0
-0.139487 +0.096132 0
-0.154244 +0.104229 0
-0.147912 +0.099874 0
-0.157896 +0.106780 0
-0.156247 +0.110833 0
-0.158629 +0.109932 0
-0.151707 +0.110158 0
-0.142043 +0.104804 0
-0.144906 +0.107303 0
-0.136596 +0.100479 0
-0.099200 +0.069538 0
-0.098703 +0.071937 0
-0.105852 +0.071411 0
-0.141050 +0.088417 0
-0.129458 +0.082150 0
-0.149102 +0.094284 0
-0.141655 +0.101578 0
-0.148520 +0.100976 0
-0.134149 +0.101142 0
-0.112997 +0.089914 0
-0.119601 +0.095354 0
-0.107156 +0.083572 0
-0.115913 +0.086327 0
-0.122531 +0.090573 0
-0.108791 +0.081703 0
-0.128919 +0.085484 0
-0.134313 +0.089840 0
-0.122956 +0.080747 0
-0.156315 +0.103829 0
-0.157890 +0.105891 0
-0.154061 +0.101313 0
-0.137027 +0.104362 0
-0.141421 +0.106392 0
-0.132032 +0.101880 0
-0.037434 +0.031897 0
-0.065435 +0.052114 0
-0.016148 +0.014848 0
-0.053006 +0.030179 0
-0.082419 +0.050599 0
-0.025901 +0.013609 0
-0.135836 +0.074530 0
-0.140078 +0.084451 0
-0.134715 +0.066225 0
-0.071771 +0.073850 0
-0.097059 +0.084679 0
-0.047404 +0.063630 0
+0.000000 +0.000000 0
+0.000000 +0.000000 0
+0.000000 +0.000000 0
+0.033982 -0.037606 0
+0.021425 -0.022328 0
+0.030296 -0.039971 0
-0.123127 +0.026150 0
-0.066706 -0.000796 0
-0.141311 +0.044976 0
-0.103214 +0.021921 0
-0.108072 +0.025265 0
-0.096543 +0.018192 0
-0.100264 +0.016148 0
-0.094931 +0.015271 0
-0.104098 +0.016773 0
-0.124079 +0.026352 0
-0.116162 +0.021913 0
-0.129911 +0.030349 0
-0.125924 +0.031891 0
-0.130701 +0.033095 0
-0.119313 +0.030231 0
-0.072145 +0.015322 0
-0.082488 +0.020840 0
-0.065932 +0.010682 0
-0.063158 +0.001297 0
-0.060528 +0.002847 0
-0.073093 +0.003597 0
-0.121261 +0.025754 0
-0.105619 +0.017196 0
-0.131725 +0.033212 0
-0.123568 +0.038360 0
-0.132557 +0.040080 0
-0.110425 +0.033460 0
-0.104378 +0.028026 0
-0.107981 +0.028190 0
-0.100318 +0.027746 0
-0.075171 +0.010107 0
-0.081771 +0.012110 0
-0.068208 +0.008046 0
-0.098144 +0.013316 0
-0.102504 +0.015267 0
-0.093346 +0.011294 0
-0.135678 +0.036344 0
-0.134926 +0.035159 0
-0.135880 +0.037390 0
-0.047949 +0.018341 0
-0.070780 +0.023351 0
-0.024616 +0.010601 0
-0.007278 -0.006612 0
-0.029309 -0.002093 0
+0.002173 -0.005835 0
-0.034378 -0.013749 0
-0.059820 -0.002535 0
-0.010082 -0.023852 0
-0.139331 +0.050642 0
-0.135804 +0.044083 0
-0.139682 +0.055660 0
+0.000000 +0.000000 0
+0.000000 +0.000000 0
+0.000000 +0.000000 0
+0.188723 -0.089185 0
+0.107886 -0.051645 0
+0.219990 -0.100881 0
+0.170501 -0.089558 0
+0.206217 -0.097109 0
+0.100023 -0.065396 0
+0.199819 -0.110167 0
+0.192102 -0.107306 0
+0.204443 -0.111350 0
+0.230076 -0.123501 0
+0.219731 -0.118136 0
+0.236645 -0.126787 0
+0.230892 -0.126686 0
+0.236871 -0.128245 0
+0.221494 -0.123283 0
+0.202089 -0.114390 0
+0.207290 -0.117271 0
+0.193412 -0.109537 0
+0.142458 -0.078725 0
+0.138100 -0.078260 0
+0.155439 -0.083986 0
+0.215642 -0.111714 0
+0.196051 -0.102452 0
+0.229168 -0.118624 0
+0.214790 -0.117110 0
+0.228072 -0.121090 0
+0.197657 -0.111412 0
+0.150418 -0.090406 0
+0.163094 -0.097256 0
+0.143040 -0.085034 0
+0.160772 -0.092249 0
+0.171389 -0.097715 0
+0.149433 -0.086370 0
+0.191754 -0.102434 0
+0.199300 -0.106878 0
+0.183361 -0.097540 0
+0.238199 -0.125849 0
+0.239275 -0.127175 0
+0.236111 -0.123985 0
+0.195831 -0.112222 0
+0.202869 -0.115444 0
+0.187930 -0.108507 0
+0.041335 -0.027701 0
+0.082583 -0.050634 0
+0.014523 -0.011192 0
+0.081958 -0.041353 0
+0.125103 -0.064786 0
+0.040781 -0.020079 0
+0.220432 -0.105424 0
+0.222354 -0.111289 0
+0.219644 -0.100211 0
+0.091919 -0.065203 0
+0.132647 -0.082873 0
+0.052816 -0.048830 0
+0.000000 +0.000000 0
+0.000000 +0.000000 0
+0.000000 +0.000000 0
+0.000000 +0.000000 0
+0.000000 +0.000000 0
+0.000000 +0.000000 0
+0.181022 -0.071284 0
+0.102785 -0.039786 0
+0.214271 -0.087587 0
+0.186787 -0.081456 0
+0.192630 -0.084251 0
+0.177920 -0.077391 0
+0.186373 -0.080494 0
+0.177735 -0.076963 0
+0.191943 -0.082654 0
+0.218808 -0.094368 0
+0.208136 -0.089530 0
+0.226088 -0.097796 0
+0.219437 -0.095829 0
+0.226432 -0.098596 0
+0.208983 -0.091499 0
+0.132277 -0.058000 0
+0.146652 -0.064650 0
+0.125763 -0.054849 0
+0.131651 -0.056545 0
+0.125480 -0.054190 0
+0.145590 -0.062183 0
+0.207154 -0.088084 0
+0.186949 -0.079291 0
+0.221789 -0.095145 0
+0.209080 -0.092561 0
+0.222965 -0.097878 0
+0.188901 -0.083827 0
+0.182528 -0.080460 0
+0.189401 -0.083300 0
+0.174851 -0.077270 0
+0.145435 -0.063119 0
+0.156048 -0.067724 0
+0.134153 -0.058222 0
+0.181213 -0.077403 0
+0.188238 -0.080595 0
+0.173386 -0.073864 0
+0.230461 -0.100020 0
+0.230661 -0.100106 0
+0.229299 -0.099516 0
+0.080057 -0.036826 0
+0.120728 -0.054365 0
+0.040298 -0.018929 0
+0.029965 -0.013005 0
+0.068970 -0.029933 0
+0.007613 -0.003304 0
+0.077856 -0.031709 0
+0.118644 -0.049522 0
+0.038774 -0.015388 0
+0.221782 -0.096253 0
+0.220781 -0.095819 0
+0.221536 -0.096146 0
+0.061420 +0.005532 0
+0.017158 +0.032661 0
+0.101563 -0.026544 0
+0.112939 -0.044673 0
+0.133529 -0.054756 0
+0.064161 -0.024963 0
+0.000000 +0.000000 0
+0.000000 +0.000000 0
+0.000000 +0.000000 0
+0.096388 +0.001325 0
+0.093015 +0.000829 0
+0.097921 +0.001917 0
+0.110735 -0.005037 0
+0.104826 -0.001178 0
+0.115164 -0.008894 0
+0.114799 -0.012535 0
+0.117429 -0.012711 0
+0.110167 -0.012132 0
+0.098534 -0.005587 0
+0.101832 -0.008600 0
+0.093851 -0.002551 0
+0.069758 +0.010598 0
+0.067944 +0.007580 0
+0.073639 +0.011488 0
+0.099235 -0.002968 0
+0.088744 +0.004407 0
+0.109888 -0.011172 0
+0.112275 -0.021526 0
+0.117816 -0.021558 0
+0.101990 -0.018298 0
+0.071182 -0.004408 0
+0.078906 -0.008774 0
+0.067920 -0.000378 0
+0.077808 +0.002252 0
+0.082971 +0.001386 0
+0.072308 +0.003106 0
+0.089538 +0.006033 0
+0.093801 +0.004306 0
+0.084875 +0.007743 0
+0.118244 -0.015329 0
+0.118361 -0.014002 0
+0.117616 -0.016594 0
+0.097677 -0.012859 0
+0.100938 -0.012258 0
+0.093987 -0.013406 0
+0.020877 +0.006590 0
+0.040348 +0.006204 0
+0.007855 +0.004431 0
+0.026598 +0.031158 0
+0.052041 +0.019969 0
+0.001856 +0.042251 0
+0.119356 -0.036223 0
+0.115052 -0.026275 0
+0.126508 -0.047146 0
+0.045415 -0.012535 0
+0.066731 -0.014132 0
+0.023396 -0.007786 0
-0.095569 +0.031972 0
-0.123048 +0.048708 0
-0.047716 +0.007330 0
+0.105624 -0.055345 0
+0.061869 -0.040230 0
+0.128013 -0.060252 0
-0.031685 +0.042491 0
-0.024292 +0.041074 0
-0.038844 +0.043370 0
-0.028231 +0.033294 0
-0.037273 +0.038847 0
-0.018682 +0.027162 0
+0.005972 +0.018450 0
-0.001475 +0.019695 0
+0.013290 +0.016903 0
+0.001283 +0.028183 0
+0.010798 +0.021825 0
-0.008005 +0.034005 0
-0.052821 +0.052731 0
-0.037266 +0.049022 0
-0.062352 +0.052425 0
-0.047099 +0.032364 0
-0.059754 +0.041547 0
-0.027675 +0.021874 0
+0.034487 -0.003045 0
+0.017242 +0.002379 0
+0.043237 -0.003151 0
+0.021289 +0.020567 0
+0.035520 +0.009949 0
+0.002517 +0.031757 0
-0.017548 +0.040792 0
-0.017237 +0.040070 0
-0.017785 +0.041343 0
-0.055988 +0.046610 0
-0.050962 +0.045283 0
-0.060784 +0.047739 0
-0.006853 +0.015931 0
-0.007864 +0.018281 0
-0.005810 +0.013505 0
+0.032385 +0.008256 0
+0.026456 +0.011683 0
+0.038189 +0.004785 0
-0.020716 +0.048157 0
-0.019121 +0.044448 0
-0.022003 +0.051147 0
-0.109855 +0.057329 0
-0.088401 +0.053033 0
-0.125512 +0.059266 0
+0.004339 -0.010087 0
+0.000295 -0.000686 0
+0.007072 -0.016439 0
+0.099644 -0.033593 0
+0.072886 -0.016965 0
+0.120440 -0.047477 0
-0.037361 -0.003740 0
-0.010494 -0.020346 0
-0.061697 +0.015907 0
-0.074466 +0.015815 0
-0.085485 +0.027141 0
-0.040685 -0.000345 0
-0.186031 +0.039510 0
-0.187774 +0.041217 0
-0.181109 +0.037128 0
-0.176060 +0.035405 0
-0.175894 +0.035025 0
-0.173625 +0.035258 0
-0.177803 +0.037763 0
-0.174718 +0.036485 0
-0.177818 +0.038388 0
-0.185968 +0.041484 0
-0.181687 +0.040204 0
-0.187522 +0.042159 0
-0.164530 +0.034944 0
-0.171139 +0.039541 0
-0.155214 +0.029771 0
-0.137726 +0.024577 0
-0.139684 +0.023891 0
-0.140525 +0.027152 0
-0.145163 +0.030830 0
-0.145350 +0.030752 0
-0.145939 +0.031113 0
-0.161030 +0.038874 0
-0.153954 +0.035391 0
-0.168479 +0.041558 0
-0.180557 +0.042275 0
-0.183800 +0.042309 0
-0.176547 +0.042068 0
-0.160975 +0.030261 0
-0.167484 +0.032299 0
-0.153753 +0.028083 0
-0.156961 +0.032091 0
-0.163073 +0.033363 0
-0.150154 +0.030676 0
-0.163169 +0.035900 0
-0.169410 +0.037251 0
-0.156207 +0.034390 0
-0.143269 +0.046453 0
-0.152989 +0.042613 0
-0.138079 +0.052007 0
-0.063371 -0.002566 0
-0.102531 +0.011656 0
-0.024994 -0.017373 0
-0.091634 +0.024141 0
-0.111409 +0.024658 0
-0.082544 +0.028004 0
-0.068302 +0.009826 0
-0.106440 +0.021610 0
-0.030330 -0.004031 0
+0.154040 -0.051292 0
+0.198165 -0.078392 0
+0.076765 -0.011330 0
-0.058470 +0.045331 0
-0.036835 +0.040887 0
-0.073194 +0.042635 0
+0.146613 -0.066900 0
+0.136258 -0.064059 0
+0.154770 -0.068785 0
+0.143154 -0.058859 0
+0.153061 -0.064813 0
+0.131050 -0.051952 0
+0.104283 -0.041866 0
+0.111638 -0.043436 0
+0.095156 -0.039591 0
+0.107871 -0.050208 0
+0.096961 -0.043788 0
+0.116943 -0.055768 0
+0.154152 -0.074252 0
+0.133004 -0.067431 0
+0.167687 -0.076722 0
+0.146376 -0.056177 0
+0.163513 -0.067019 0
+0.122735 -0.043560 0
+0.055824 -0.016136 0
+0.073309 -0.021601 0
+0.047363 -0.016101 0
+0.064384 -0.036035 0
+0.052076 -0.027056 0
+0.084115 -0.046721 0
+0.117115 -0.059593 0
+0.120845 -0.060125 0
+0.112870 -0.058802 0
+0.167252 -0.072587 0
+0.164291 -0.071302 0
+0.169511 -0.073568 0
+0.107843 -0.038039 0
+0.112722 -0.041243 0
+0.102485 -0.034662 0
+0.065318 -0.028348 0
+0.074955 -0.032531 0
+0.055373 -0.024032 0
+0.059652 -0.046667 0
+0.082400 -0.051758 0
+0.037072 -0.040483 0
+0.197447 -0.085692 0
+0.182242 -0.079093 0
+0.209709 -0.091013 0
+0.037671 +0.004429 0
+0.065478 -0.012421 0
+0.011267 +0.019504 0
-0.041359 +0.017950 0
-0.002813 +0.001221 0
-0.067400 +0.029252 0
+0.000000 +0.000000 0
+0.000000 +0.000000 0
+0.000000 +0.000000 0
+0.009801 +0.018605 0
+0.007641 +0.009713 0
+0.001922 +0.025988 0
+0.205060 -0.065348 0
+0.211167 -0.067562 0
+0.195640 -0.062135 0
+0.175016 -0.052511 0
+0.180512 -0.055720 0
+0.166783 -0.048449 0
+0.173861 -0.048771 0
+0.166334 -0.046592 0
+0.178403 -0.050120 0
+0.202880 -0.061570 0
+0.192767 -0.056506 0
+0.209955 -0.065677 0
+0.196467 -0.067140 0
+0.208893 -0.071493 0
+0.177680 -0.059746 0
+0.124581 -0.037169 0
+0.137957 -0.043347 0
+0.118715 -0.033197 0
+0.123839 -0.028621 0
+0.118756 -0.028585 0
+0.135089 -0.032155 0
+0.189516 -0.058358 0
+0.170545 -0.048387 0
+0.204686 -0.066727 0
+0.214427 -0.070590 0
+0.214596 -0.069805 0
+0.213353 -0.071082 0
+0.171428 -0.055186 0
+0.177739 -0.056757 0
+0.164360 -0.053371 0
+0.136998 -0.036983 0
+0.146706 -0.040338 0
+0.126671 -0.033459 0
+0.167025 -0.045257 0
+0.173884 -0.048067 0
+0.159426 -0.042245 0
+0.210111 -0.081432 0
+0.206710 -0.074924 0
+0.214475 -0.088196 0
+0.075840 -0.027131 0
+0.114004 -0.038986 0
+0.038262 -0.014225 0
+0.031009 -0.003696 0
+0.066935 -0.014257 0
+0.009351 +0.000831 0
+0.065144 -0.002962 0
+0.105878 -0.020647 0
+0.025408 +0.014881 0
+0.151993 -0.093252 0
+0.158610 -0.085189 0
+0.098174 -0.072354 0
-0.009801 -0.018605 0
-0.001922 -0.025988 0
-0.007641 -0.009713 0
+0.000000 +0.000000 0
+0.000000 +0.000000 0
+0.000000 +0.000000 0
+0.150002 -0.087860 0
+0.142112 -0.083227 0
+0.155698 -0.091202 0
+0.153167 -0.093972 0
+0.157449 -0.094365 0
+0.146312 -0.092000 0
+0.129215 -0.083446 0
+0.134147 -0.086625 0
+0.122360 -0.079032 0
+0.127411 -0.078170 0
+0.121622 -0.076491 0
+0.130961 -0.078475 0
+0.139719 -0.075906 0
+0.125726 -0.069029 0
+0.151017 -0.082991 0
+0.149690 -0.091838 0
+0.157068 -0.092123 0
+0.135919 -0.087632 0
+0.090783 -0.065513 0
+0.102846 -0.072760 0
+0.085305 -0.060444 0
+0.089059 -0.054640 0
+0.084902 -0.054780 0
+0.098314 -0.057628 0
+0.122651 -0.070504 0
+0.127735 -0.074110 0
+0.117023 -0.066580 0
+0.159522 -0.091772 0
+0.159679 -0.092699 0
+0.158711 -0.090462 0
+0.129117 -0.085315 0
+0.133414 -0.087121 0
+0.124255 -0.083144 0
+0.098992 -0.065479 0
+0.106503 -0.069601 0
+0.091012 -0.061055 0
+0.050561 -0.024412 0
+0.078575 -0.041469 0
+0.024703 -0.010803 0
+0.149727 -0.074809 0
+0.151520 -0.080615 0
+0.144931 -0.067861 0
+0.064706 -0.056751 0
+0.089966 -0.067542 0
+0.039944 -0.045564 0
+0.017614 -0.017415 0
+0.044980 -0.034334 0
+0.003002 -0.006194 0
+0.091923 -0.056397 0
+0.059728 -0.043924 0
+0.096020 -0.051632 0
+0.058470 -0.045331 0
+0.073194 -0.042635 0
+0.036835 -0.040887 0
+0.227464 -0.137945 0
+0.229018 -0.138619 0
+0.222570 -0.135243 0
+0.219487 -0.134661 0
+0.218847 -0.133765 0
+0.216336 -0.133231 0
+0.219437 -0.136240 0
+0.216039 -0.133856 0
+0.219598 -0.136618 0
+0.229644 -0.140892 0
+0.224982 -0.139115 0
+0.230382 -0.140262 0
+0.193837 -0.115138 0
+0.201867 -0.119172 0
+0.187198 -0.112669 0
+0.179195 -0.109940 0
+0.180028 -0.110356 0
+0.179551 -0.110255 0
+0.174959 -0.111128 0
+0.176319 -0.110358 0
+0.178541 -0.114218 0
+0.203102 -0.124608 0
+0.194981 -0.122213 0
+0.207881 -0.124953 0
+0.218732 -0.131016 0
+0.223428 -0.134428 0
+0.213100 -0.127038 0
+0.200105 -0.121761 0
+0.207782 -0.126450 0
+0.191543 -0.116533 0
+0.195076 -0.120693 0
+0.202648 -0.125359 0
+0.186640 -0.115492 0
+0.202869 -0.127647 0
+0.210211 -0.131620 0
+0.194635 -0.123117 0
+0.159904 -0.085124 0
+0.178150 -0.101101 0
+0.146456 -0.071480 0
+0.089265 -0.058557 0
+0.132448 -0.082068 0
+0.048519 -0.038252 0
+0.108166 -0.062572 0
+0.136474 -0.082923 0
+0.090817 -0.047235 0
+0.095180 -0.071377 0
+0.137275 -0.092420 0
+0.054847 -0.052024 0
-0.091923 +0.056397 0
-0.096020 +0.051632 0
-0.059728 +0.043924 0
+0.074466 -0.015815 0
+0.040685 +0.000345 0
+0.085485 -0.027141 0
-0.151993 +0.093252 0