# vtk DataFile Version 2.0
MyTitle
ASCII
DATASET UNSTRUCTURED_GRID
POINTS 2645 double
0.000000 0.000000 0.000000
1.000000 0.000000 0.000000
1.000000 1.000000 0.000000
0.000000 1.000000 0.000000
0.420000 0.420000 0.000000
0.580000 0.420000 0.000000
0.580000 0.580000 0.000000
0.420000 0.580000 0.000000
0.358579 0.358579 0.000000
0.641421 0.358579 0.000000
0.641421 0.641421 0.000000
0.358579 0.641421 0.000000
2.000000 0.000000 0.000000
2.000000 1.000000 0.000000
1.420000 0.420000 0.000000
1.580000 0.420000 0.000000
1.580000 0.580000 0.000000
1.420000 0.580000 0.000000
1.358579 0.358579 0.000000
1.641421 0.358579 0.000000
1.641421 0.641421 0.000000
1.358579 0.641421 0.000000
3.000000 0.000000 0.000000
3.000000 1.000000 0.000000
2.420000 0.420000 0.000000
2.580000 0.420000 0.000000
2.580000 0.580000 0.000000
2.420000 0.580000 0.000000
2.358579 0.358579 0.000000
2.641421 0.358579 0.000000
2.641421 0.641421 0.000000
2.358579 0.641421 0.000000
4.000000 0.000000 0.000000
4.000000 1.000000 0.000000
3.420000 0.420000 0.000000
3.580000 0.420000 0.000000
3.580000 0.580000 0.000000
3.420000 0.580000 0.000000
3.358579 0.358579 0.000000
3.641421 0.358579 0.000000
3.641421 0.641421 0.000000
3.358579 0.641421 0.000000
5.000000 0.000000 0.000000
5.000000 1.000000 0.000000
4.420000 0.420000 0.000000
4.580000 0.420000 0.000000
4.580000 0.580000 0.000000
4.420000 0.580000 0.000000
4.358579 0.358579 0.000000
4.641421 0.358579 0.000000
4.641421 0.641421 0.000000
4.358579 0.641421 0.000000
1.000000 2.000000 0.000000
0.000000 2.000000 0.000000
0.420000 1.420000 0.000000
0.580000 1.420000 0.000000
0.580000 1.580000 0.000000
0.420000 1.580000 0.000000
0.358579 1.358579 0.000000
0.641421 1.358579 0.000000
0.641421 1.641421 0.000000
0.358579 1.641421 0.000000
2.000000 2.000000 0.000000
1.420000 1.420000 0.000000
1.580000 1.420000 0.000000
1.580000 1.580000 0.000000
1.420000 1.580000 0.000000
1.358579 1.358579 0.000000
1.641421 1.358579 0.000000
1.641421 1.641421 0.000000
1.358579 1.641421 0.000000
3.000000 2.000000 0.000000
2.420000 1.420000 0.000000
2.580000 1.420000 0.000000
2.580000 1.580000 0.000000
2.420000 1.580000 0.000000
2.358579 1.358579 0.000000
2.641421 1.358579 0.000000
2.641421 1.641421 0.000000
2.358579 1.641421 0.000000
4.000000 2.000000 0.000000
3.420000 1.420000 0.000000
3.580000 1.420000 0.000000
3.580000 1.580000 0.000000
3.420000 1.580000 0.000000
3.358579 1.358579 0.000000
3.641421 1.358579 0.000000
3.641421 1.641421 0.000000
3.358579 1.641421 0.000000
5.000000 2.000000 0.000000
4.420000 1.420000 0.000000
4.580000 1.420000 0.000000
4.580000 1.580000 0.000000
4.420000 1.580000 0.000000
4.358579 1.358579 0.000000
4.641421 1.358579 0.000000
4.641421 1.641421 0.000000
4.358579 1.641421 0.000000
1.000000 3.000000 0.000000
0.000000 3.000000 0.000000
0.420000 2.420000 0.000000
0.580000 2.420000 0.000000
0.580000 2.580000 0.000000
0.420000 2.580000 0.000000
0.358579 2.358579 0.000000
0.641421 2.358579 0.000000
0.641421 2.641421 0.000000
0.358579 2.641421 0.000000
2.000000 3.000000 0.000000
1.420000 2.420000 0.000000
1.580000 2.420000 0.000000
1.580000 2.580000 0.000000
1.420000 2.580000 0.000000
1.358579 2.358579 0.000000
1.641421 2.358579 0.000000
1.641421 2.641421 0.000000
1.358579 2.641421 0.000000
3.000000 3.000000 0.000000
4.000000 3.000000 0.000000
3.420000 2.420000 0.000000
3.580000 2.420000 0.000000
3.580000 2.580000 0.000000
3.420000 2.580000 0.000000
3.358579 2.358579 0.000000
3.641421 2.358579 0.000000
3.641421 2.641421 0.000000
3.358579 2.641421 0.000000
5.000000 3.000000 0.000000
4.420000 2.420000 0.000000
4.580000 2.420000 0.000000
4.580000 2.580000 0.000000
4.420000 2.580000 0.000000
4.358579 2.358579 0.000000
4.641421 2.358579 0.000000
4.641421 2.641421 0.000000
4.358579 2.641421 0.000000
1.000000 4.000000 0.000000
0.000000 4.000000 0.000000
0.420000 3.420000 0.000000
0.580000 3.420000 0.000000
0.580000 3.580000 0.000000
0.420000 3.580000 0.000000
0.358579 3.358579 0.000000
0.641421 3.358579 0.000000
0.641421 3.641421 0.000000
0.358579 3.641421 0.000000
2.000000 4.000000 0.000000
1.420000 3.420000 0.000000
1.580000 3.420000 0.000000
1.580000 3.580000 0.000000
1.420000 3.580000 0.000000
1.358579 3.358579 0.000000
1.641421 3.358579 0.000000
1.641421 3.641421 0.000000
1.358579 3.641421 0.000000
3.000000 4.000000 0.000000
2.420000 3.420000 0.000000
2.580000 3.420000 0.000000
2.580000 3.580000 0.000000
2.420000 3.580000 0.000000
2.358579 3.358579 0.000000
2.641421 3.358579 0.000000
2.641421 3.641421 0.000000
2.358579 3.641421 0.000000
4.000000 4.000000 0.000000
3.420000 3.420000 0.000000
3.580000 3.420000 0.000000
3.580000 3.580000 0.000000
3.420000 3.580000 0.000000
3.358579 3.358579 0.000000
3.641421 3.358579 0.000000
3.641421 3.641421 0.000000
3.358579 3.641421 0.000000
5.000000 4.000000 0.000000
4.420000 3.420000 0.000000
4.580000 3.420000 0.000000
4.580000 3.580000 0.000000
4.420000 3.580000 0.000000
4.358579 3.358579 0.000000
4.641421 3.358579 0.000000
4.641421 3.641421 0.000000
4.358579 3.641421 0.000000
1.000000 5.000000 0.000000
0.000000 5.000000 0.000000
0.420000 4.420000 0.000000
0.580000 4.420000 0.000000
0.580000 4.580000 0.000000
0.420000 4.580000 0.000000
0.358579 4.358579 0.000000
0.641421 4.358579 0.000000
0.641421 4.641421 0.000000
0.358579 4.641421 0.000000
2.000000 5.000000 0.000000
1.420000 4.420000 0.000000
1.580000 4.420000 0.000000
1.580000 4.580000 0.000000
1.420000 4.580000 0.000000
1.358579 4.358579 0.000000
1.641421 4.358579 0.000000
1.641421 4.641421 0.000000
1.358579 4.641421 0.000000
3.000000 5.000000 0.000000
2.420000 4.420000 0.000000
2.580000 4.420000 0.000000
2.580000 4.580000 0.000000
2.420000 4.580000 0.000000
2.358579 4.358579 0.000000
2.641421 4.358579 0.000000
2.641421 4.641421 0.000000
2.358579 4.641421 0.000000
4.000000 5.000000 0.000000
3.420000 4.420000 0.000000
3.580000 4.420000 0.000000
3.580000 4.580000 0.000000
3.420000 4.580000 0.000000
3.358579 4.358579 0.000000
3.641421 4.358579 0.000000
3.641421 4.641421 0.000000
3.358579 4.641421 0.000000
5.000000 5.000000 0.000000
4.420000 4.420000 0.000000
4.580000 4.420000 0.000000
4.580000 4.580000 0.000000
4.420000 4.580000 0.000000
4.358579 4.358579 0.000000
4.641421 4.358579 0.000000
4.641421 4.641421 0.000000
4.358579 4.641421 0.000000
0.500000 0.000000 0.000000
0.250000 0.000000 0.000000
0.750000 0.000000 0.000000
1.000000 0.500000 0.000000
1.000000 0.250000 0.000000
1.000000 0.750000 0.000000
0.500000 1.000000 0.000000
0.750000 1.000000 0.000000
0.250000 1.000000 0.000000
0.000000 0.500000 0.000000
0.000000 0.750000 0.000000
0.000000 0.250000 0.000000
0.500000 0.420000 0.000000
0.460000 0.420000 0.000000
0.540000 0.420000 0.000000
0.580000 0.500000 0.000000
0.580000 0.460000 0.000000
0.580000 0.540000 0.000000
0.500000 0.580000 0.000000
0.540000 0.580000 0.000000
0.460000 0.580000 0.000000
0.420000 0.500000 0.000000
0.420000 0.540000 0.000000
0.420000 0.460000 0.000000
0.500000 0.300001 0.000000
0.423464 0.315225 0.000000
0.576536 0.315225 0.000000
0.699999 0.500000 0.000000
0.684775 0.423464 0.000000
0.684775 0.576536 0.000000
0.500000 0.699999 0.000000
0.576536 0.684775 0.000000
0.423464 0.684775 0.000000
0.300001 0.500000 0.000000
0.315225 0.576536 0.000000
0.315225 0.423464 0.000000
0.389290 0.389290 0.000000
0.404645 0.404645 0.000000
0.373934 0.373934 0.000000
0.610710 0.389290 0.000000
0.595355 0.404645 0.000000
0.626066 0.373934 0.000000
0.610710 0.610710 0.000000
0.595355 0.595355 0.000000
0.626066 0.626066 0.000000
0.389290 0.610710 0.000000
0.404645 0.595355 0.000000
0.373934 0.626066 0.000000
0.179290 0.179290 0.000000
0.268934 0.268934 0.000000
0.089645 0.089645 0.000000
0.820710 0.179290 0.000000
0.731066 0.268934 0.000000
0.910355 0.089645 0.000000
0.820710 0.820710 0.000000
0.731066 0.731066 0.000000
0.910355 0.910355 0.000000
0.179290 0.820710 0.000000
0.268934 0.731066 0.000000
0.089645 0.910355 0.000000
1.500000 0.000000 0.000000
1.250000 0.000000 0.000000
1.750000 0.000000 0.000000
2.000000 0.500000 0.000000
2.000000 0.250000 0.000000
2.000000 0.750000 0.000000
1.500000 1.000000 0.000000
1.750000 1.000000 0.000000
1.250000 1.000000 0.000000
1.500000 0.420000 0.000000
1.460000 0.420000 0.000000
1.540000 0.420000 0.000000
1.580000 0.500000 0.000000
1.580000 0.460000 0.000000
1.580000 0.540000 0.000000
1.500000 0.580000 0.000000
1.540000 0.580000 0.000000
1.460000 0.580000 0.000000
1.420000 0.500000 0.000000
1.420000 0.540000 0.000000
1.420000 0.460000 0.000000
1.500000 0.300001 0.000000
1.423464 0.315225 0.000000
1.576536 0.315225 0.000000
1.699999 0.500000 0.000000
1.684775 0.423464 0.000000
1.684775 0.576536 0.000000
1.500000 0.699999 0.000000
1.576536 0.684775 0.000000
1.423464 0.684775 0.000000
1.300001 0.500000 0.000000
1.315225 0.576536 0.000000
1.315225 0.423464 0.000000
1.389290 0.389290 0.000000
1.404645 0.404645 0.000000
1.373934 0.373934 0.000000
1.610710 0.389290 0.000000
1.595355 0.404645 0.000000
1.626066 0.373934 0.000000
1.610710 0.610710 0.000000
1.595355 0.595355 0.000000
1.626066 0.626066 0.000000
1.389290 0.610710 0.000000
1.404645 0.595355 0.000000
1.373934 0.626066 0.000000
1.179290 0.179290 0.000000
1.268934 0.268934 0.000000
1.089645 0.089645 0.000000
1.820710 0.179290 0.000000
1.731066 0.268934 0.000000
1.910355 0.089645 0.000000
1.820710 0.820710 0.000000
1.731066 0.731066 0.000000
1.910355 0.910355 0.000000
1.179290 0.820710 0.000000
1.268934 0.731066 0.000000
1.089645 0.910355 0.000000
2.500000 0.000000 0.000000
2.250000 0.000000 0.000000
2.750000 0.000000 0.000000
3.000000 0.500000 0.000000
3.000000 0.250000 0.000000
3.000000 0.750000 0.000000
2.500000 1.000000 0.000000
2.750000 1.000000 0.000000
2.250000 1.000000 0.000000
2.500000 0.420000 0.000000
2.460000 0.420000 0.000000
2.540000 0.420000 0.000000
2.580000 0.500000 0.000000
2.580000 0.460000 0.000000
2.580000 0.540000 0.000000
2.500000 0.580000 0.000000
2.540000 0.580000 0.000000
2.460000 0.580000 0.000000
2.420000 0.500000 0.000000
2.420000 0.540000 0.000000
2.420000 0.460000 0.000000
2.500000 0.300001 0.000000
[...]
POINT_DATA 2645
VECTORS sol double
+0.000000 +0.000000 0
+0.000000 +0.000000 0
-0.014343 -0.187199 0
+0.000000 +0.000000 0
-0.009593 -0.125200 0
-0.011418 -0.149020 0
-0.013662 -0.178310 0
-0.011418 -0.149020 0
-0.007071 -0.092294 0
-0.009801 -0.127919 0
-0.013767 -0.179684 0
-0.009801 -0.127919 0
+0.000000 +0.000000 0
-0.004004 -0.052264 0
-0.014216 -0.185546 0
-0.013444 -0.175466 0
-0.015397 -0.200961 0
-0.016472 -0.214982 0
-0.011864 -0.154852 0
-0.010764 -0.140482 0
-0.013806 -0.180191 0
-0.015798 -0.206187 0
+0.000000 +0.000000 0
-0.004004 -0.052264 0
-0.007052 -0.092035 0
-0.007052 -0.092035 0
-0.007340 -0.095802 0
-0.007340 -0.095802 0
-0.006053 -0.079008 0
-0.006053 -0.079008 0
-0.006572 -0.085778 0
-0.006572 -0.085778 0
+0.000000 +0.000000 0
-0.014343 -0.187199 0
-0.013444 -0.175466 0
-0.014216 -0.185546 0
-0.016472 -0.214982 0
-0.015397 -0.200961 0
-0.010764 -0.140482 0
-0.011864 -0.154852 0
-0.015798 -0.206187 0
-0.013806 -0.180191 0
+0.000000 +0.000000 0
+0.000000 +0.000000 0
-0.011418 -0.149020 0
-0.009593 -0.125200 0
-0.011418 -0.149020 0
-0.013662 -0.178310 0
-0.009801 -0.127919 0
-0.007071 -0.092294 0
-0.009801 -0.127919 0
-0.013767 -0.179684 0
-0.004004 -0.052264 0
+0.000000 +0.000000 0
-0.014216 -0.185546 0
-0.016472 -0.214982 0
-0.015397 -0.200961 0
-0.013444 -0.175466 0
-0.011864 -0.154852 0
-0.015798 -0.206187 0
-0.013806 -0.180191 0
-0.010764 -0.140482 0
+0.014557 +0.189989 0
-0.008634 -0.112694 0
-0.005527 -0.072140 0
-0.002178 -0.028423 0
-0.005527 -0.072140 0
-0.009976 -0.130205 0
-0.004976 -0.064951 0
+0.000738 +0.009634 0
-0.004976 -0.064951 0
+0.014557 +0.189989 0
+0.013122 +0.171262 0
+0.013122 +0.171262 0
+0.016821 +0.219547 0
+0.016821 +0.219547 0
+0.010057 +0.131267 0
+0.010057 +0.131267 0
+0.016221 +0.211707 0
+0.016221 +0.211707 0
-0.004004 -0.052264 0
-0.005527 -0.072140 0
-0.008634 -0.112694 0
-0.005527 -0.072140 0
-0.002178 -0.028423 0
-0.004976 -0.064951 0
-0.009976 -0.130205 0
-0.004976 -0.064951 0
+0.000738 +0.009634 0
+0.000000 +0.000000 0
-0.016472 -0.214982 0
-0.014216 -0.185546 0
-0.013444 -0.175466 0
-0.015397 -0.200961 0
-0.015798 -0.206187 0
-0.011864 -0.154852 0
-0.010764 -0.140482 0
-0.013806 -0.180191 0
-0.004004 -0.052264 0
+0.000000 +0.000000 0
-0.007052 -0.092035 0
-0.007340 -0.095802 0
-0.007340 -0.095802 0
-0.007052 -0.092035 0
-0.006053 -0.079008 0
-0.006572 -0.085778 0
-0.006572 -0.085778 0
-0.006053 -0.079008 0
+0.014557 +0.189989 0
+0.013122 +0.171262 0
+0.016821 +0.219547 0
+0.016821 +0.219547 0
+0.013122 +0.171262 0
+0.010057 +0.131267 0
+0.016221 +0.211707 0
+0.016221 +0.211707 0
+0.010057 +0.131267 0
+0.014557 +0.189989 0
-0.004004 -0.052264 0
+0.016821 +0.219547 0
+0.013122 +0.171262 0
+0.013122 +0.171262 0
+0.016821 +0.219547 0
+0.016221 +0.211707 0
+0.010057 +0.131267 0
+0.010057 +0.131267 0
+0.016221 +0.211707 0
+0.000000 +0.000000 0
-0.007340 -0.095802 0
-0.007052 -0.092035 0
-0.007052 -0.092035 0
-0.007340 -0.095802 0
-0.006572 -0.085778 0
-0.006053 -0.079008 0
-0.006053 -0.079008 0
-0.006572 -0.085778 0
-0.014343 -0.187199 0
+0.000000 +0.000000 0
-0.013444 -0.175466 0
-0.015397 -0.200961 0
-0.016472 -0.214982 0
-0.014216 -0.185546 0
-0.010764 -0.140482 0
-0.013806 -0.180191 0
-0.015798 -0.206187 0
-0.011864 -0.154852 0
-0.004004 -0.052264 0
-0.005527 -0.072140 0
-0.002178 -0.028423 0
-0.005527 -0.072140 0
-0.008634 -0.112694 0
-0.004976 -0.064951 0
+0.000738 +0.009634 0
-0.004976 -0.064951 0
-0.009976 -0.130205 0
-0.004004 -0.052264 0
+0.016821 +0.219547 0
+0.016821 +0.219547 0
+0.013122 +0.171262 0
+0.013122 +0.171262 0
+0.016221 +0.211707 0
+0.016221 +0.211707 0
+0.010057 +0.131267 0
+0.010057 +0.131267 0
-0.014343 -0.187199 0
-0.002178 -0.028423 0
-0.005527 -0.072140 0
-0.008634 -0.112694 0
-0.005527 -0.072140 0
+0.000738 +0.009634 0
-0.004976 -0.064951 0
-0.009976 -0.130205 0
-0.004976 -0.064951 0
+0.000000 +0.000000 0
-0.015397 -0.200961 0
-0.013444 -0.175466 0
-0.014216 -0.185546 0
-0.016472 -0.214982 0
-0.013806 -0.180191 0
-0.010764 -0.140482 0
-0.011864 -0.154852 0
-0.015798 -0.206187 0
+0.000000 +0.000000 0
+0.000000 +0.000000 0
-0.011418 -0.149020 0
-0.013662 -0.178310 0
-0.011418 -0.149020 0
-0.009593 -0.125200 0
-0.009801 -0.127919 0
-0.013767 -0.179684 0
-0.009801 -0.127919 0
-0.007071 -0.092294 0
+0.000000 +0.000000 0
-0.016472 -0.214982 0
-0.015397 -0.200961 0
-0.013444 -0.175466 0
-0.014216 -0.185546 0
-0.015798 -0.206187 0
-0.013806 -0.180191 0
-0.010764 -0.140482 0
-0.011864 -0.154852 0
+0.000000 +0.000000 0
-0.007340 -0.095802 0
-0.007340 -0.095802 0
-0.007052 -0.092035 0
-0.007052 -0.092035 0
-0.006572 -0.085778 0
-0.006572 -0.085778 0
-0.006053 -0.079008 0
-0.006053 -0.079008 0
+0.000000 +0.000000 0
-0.015397 -0.200961 0
-0.016472 -0.214982 0
-0.014216 -0.185546 0
-0.013444 -0.175466 0
-0.013806 -0.180191 0
-0.015798 -0.206187 0
-0.011864 -0.154852 0
-0.010764 -0.140482 0
+0.000000 +0.000000 0
-0.013662 -0.178310 0
-0.011418 -0.149020 0
-0.009593 -0.125200 0
-0.011418 -0.149020 0
-0.013767 -0.179684 0
-0.009801 -0.127919 0
-0.007071 -0.092294 0
-0.009801 -0.127919 0
+0.000000 +0.000000 0
+0.000000 +0.000000 0
+0.000000 +0.000000 0
-0.012041 -0.157150 0
-0.006849 -0.089397 0
-0.014212 -0.185492 0
-0.012041 -0.157150 0
-0.014212 -0.185492 0
-0.006849 -0.089397 0
+0.000000 +0.000000 0
+0.000000 +0.000000 0
+0.000000 +0.000000 0
-0.010822 -0.141251 0
-0.010281 -0.134188 0
-0.011203 -0.146219 0
-0.012901 -0.168376 0
-0.012243 -0.159788 0
-0.013375 -0.174569 0
-0.012901 -0.168376 0
-0.013375 -0.174569 0
-0.012243 -0.159788 0
-0.010822 -0.141251 0
-0.011203 -0.146219 0
-0.010281 -0.134188 0
-0.007665 -0.100040 0
-0.007252 -0.094649 0
-0.008564 -0.111773 0
-0.012565 -0.163998 0
-0.011254 -0.146889 0
-0.013479 -0.175919 0
-0.012565 -0.163998 0
-0.013479 -0.175919 0
-0.011254 -0.146889 0
-0.007665 -0.100040 0
-0.008564 -0.111773 0
-0.007252 -0.094649 0
-0.008378 -0.109349 0
-0.008994 -0.117393 0
-0.007726 -0.100840 0
-0.010708 -0.139757 0
-0.011088 -0.144716 0
-0.010285 -0.134239 0
-0.013830 -0.180511 0
-0.013772 -0.179750 0
-0.013837 -0.180593 0
-0.010708 -0.139757 0
-0.011088 -0.144716 0
-0.010285 -0.134239 0
-0.001729 -0.022570 0
-0.003979 -0.051934 0
-0.000439 -0.005733 0
-0.004899 -0.063938 0
-0.007250 -0.094625 0
-0.002508 -0.032735 0
-0.014235 -0.185787 0
-0.013826 -0.180451 0
-0.014457 -0.188687 0
-0.004899 -0.063938 0
-0.007250 -0.094625 0
-0.002508 -0.032735 0
+0.000000 +0.000000 0
+0.000000 +0.000000 0
+0.000000 +0.000000 0
-0.007634 -0.099635 0
-0.004744 -0.061919 0
-0.007145 -0.093252 0
-0.011480 -0.149832 0
-0.007884 -0.102905 0
-0.013530 -0.176586 0
-0.014194 -0.185259 0
-0.014298 -0.186611 0
-0.013906 -0.181501 0
-0.014911 -0.194612 0
-0.014293 -0.186543 0
-0.015280 -0.199434 0
-0.016333 -0.213177 0
-0.015960 -0.208310 0
-0.016504 -0.215403 0
-0.015843 -0.206775 0
-0.016286 -0.212559 0
-0.015146 -0.197686 0
-0.010228 -0.133495 0
-0.010827 -0.141317 0
-0.010306 -0.134516 0
-0.012341 -0.161077 0
-0.011561 -0.150892 0
-0.013106 -0.171062 0
-0.015214 -0.198567 0
-0.014558 -0.190004 0
-0.015737 -0.205400 0
-0.014476 -0.188940 0
-0.015424 -0.201315 0
-0.013223 -0.172588 0
-0.013153 -0.171664 0
-0.013712 -0.178967 0
-0.012540 -0.163664 0
-0.012190 -0.159095 0
-0.012836 -0.167538 0
-0.011495 -0.150024 0
-0.014734 -0.192307 0
-0.015098 -0.197061 0
-0.014312 -0.186796 0
-0.016268 -0.212328 0
-0.016400 -0.214045 0
-0.016072 -0.209769 0
-0.005403 -0.070524 0
-0.008411 -0.109782 0
-0.002636 -0.034409 0
-0.004335 -0.056574 0
-0.007200 -0.093971 0
-0.001988 -0.025949 0
-0.008999 -0.117454 0
-0.011257 -0.146920 0
-0.006622 -0.086432 0
-0.014510 -0.189382 0
-0.014849 -0.193804 0
-0.014390 -0.187817 0
+0.000000 +0.000000 0
+0.000000 +0.000000 0
+0.000000 +0.000000 0
-0.007634 -0.099635 0
-0.004744 -0.061919 0
-0.007145 -0.093252 0
-0.000045 -0.000587 0
-0.001155 -0.015070 0
-0.001155 -0.015070 0
-0.007164 -0.093507 0
-0.007136 -0.093134 0
-0.007136 -0.093134 0
-0.007513 -0.098056 0
-0.007358 -0.096039 0
-0.007506 -0.097969 0
-0.007441 -0.097119 0
-0.007416 -0.096788 0
-0.007416 -0.096788 0
-0.007513 -0.098056 0
-0.007506 -0.097969 0
-0.007358 -0.096039 0
-0.005404 -0.070528 0
-0.005603 -0.073124 0
-0.005603 -0.073124 0
-0.006959 -0.090821 0
-0.006605 -0.086210 0
-0.006933 -0.090485 0
-0.005956 -0.077732 0
-0.006182 -0.080682 0
-0.006182 -0.080682 0
-0.006959 -0.090821 0
-0.006933 -0.090485 0
-0.006605 -0.086210 0
-0.006608 -0.086247 0
-0.006844 -0.089320 0
-0.006348 -0.082851 0
-0.006608 -0.086247 0
-0.006844 -0.089320 0
-0.006348 -0.082851 0
-0.007013 -0.091531 0
-0.007189 -0.093835 0
-0.006807 -0.088846 0
-0.007013 -0.091531 0
-0.007189 -0.093835 0
-0.006807 -0.088846 0
-0.003183 -0.041542 0
-0.004550 -0.059386 0
-0.001696 -0.022139 0
-0.003183 -0.041542 0
-0.004550 -0.059386 0
-0.001696 -0.022139 0
-0.004792 -0.062543 0
-0.005516 -0.071997 0
-0.004304 -0.056180 0
-0.004792 -0.062543 0
-0.005516 -0.071997 0
-0.004304 -0.056180 0
+0.000000 +0.000000 0
+0.000000 +0.000000 0
+0.000000 +0.000000 0
-0.012041 -0.157150 0
-0.006849 -0.089397 0
-0.014212 -0.185492 0
-0.011480 -0.149832 0
-0.013530 -0.176586 0
-0.007884 -0.102905 0
-0.014194 -0.185259 0
-0.013906 -0.181501 0
-0.014298 -0.186611 0
-0.015843 -0.206775 0
-0.015146 -0.197686 0
-0.016286 -0.212559 0
-0.016333 -0.213177 0
-0.016504 -0.215403 0
-0.015960 -0.208310 0
-0.014911 -0.194612 0
-0.015280 -0.199434 0
-0.014293 -0.186543 0
-0.010228 -0.133495 0
-0.010306 -0.134516 0
-0.010827 -0.141317 0
-0.014476 -0.188940 0
-0.013223 -0.172588 0
-0.015424 -0.201315 0
-0.015214 -0.198567 0
-0.015737 -0.205400 0
-0.014558 -0.190004 0
-0.012341 -0.161077 0
-0.013106 -0.171062 0
-0.011561 -0.150892 0
-0.012190 -0.159095 0
-0.012836 -0.167538 0
-0.011495 -0.150024 0
-0.013153 -0.171664 0
-0.013712 -0.178967 0
-0.012540 -0.163664 0
-0.016268 -0.212328 0
-0.016400 -0.214045 0
-0.016072 -0.209769 0
-0.014734 -0.192307 0
-0.015098 -0.197061 0
-0.014312 -0.186796 0
-0.004335 -0.056574 0
-0.007200 -0.093971 0
-0.001988 -0.025949 0
-0.005403 -0.070524 0
-0.008411 -0.109782 0
-0.002636 -0.034409 0
-0.014510 -0.189382 0
-0.014849 -0.193804 0
-0.014390 -0.187817 0
-0.008999 -0.117454 0
-0.011257 -0.146920 0
-0.006622 -0.086432 0
+0.000000 +0.000000 0
+0.000000 +0.000000 0
+0.000000 +0.000000 0
+0.000000 +0.000000 0
+0.000000 +0.000000 0
+0.000000 +0.000000 0
-0.012041 -0.157150 0
-0.006849 -0.089397 0
-0.014212 -0.185492 0
-0.010822 -0.141251 0
-0.011203 -0.146219 0
-0.010281 -0.134188 0
-0.010822 -0.141251 0
-0.010281 -0.134188 0
-0.011203 -0.146219 0
-0.012901 -0.168376 0
-0.012243 -0.159788 0
-0.013375 -0.174569 0
-0.012901 -0.168376 0
-0.013375 -0.174569 0
-0.012243 -0.159788 0
-0.007665 -0.100040 0
-0.008564 -0.111773 0
-0.007252 -0.094649 0
-0.007665 -0.100040 0
-0.007252 -0.094649 0
-0.008564 -0.111773 0
-0.012565 -0.163998 0
-0.011254 -0.146889 0
-0.013479 -0.175919 0
-0.012565 -0.163998 0
-0.013479 -0.175919 0
-0.011254 -0.146889 0
-0.010708 -0.139757 0
-0.011088 -0.144716 0
-0.010285 -0.134239 0
-0.008378 -0.109349 0
-0.008994 -0.117393 0
-0.007726 -0.100840 0
-0.010708 -0.139757 0
-0.011088 -0.144716 0
-0.010285 -0.134239 0
-0.013830 -0.180511 0
-0.013772 -0.179750 0
-0.013837 -0.180593 0
-0.004899 -0.063938 0
-0.007250 -0.094625 0
-0.002508 -0.032735 0
-0.001729 -0.022570 0
-0.003979 -0.051934 0
-0.000439 -0.005733 0
-0.004899 -0.063938 0
-0.007250 -0.094625 0
-0.002508 -0.032735 0
-0.014235 -0.185787 0
-0.013826 -0.180451 0
-0.014457 -0.188687 0
-0.011480 -0.149832 0
-0.013530 -0.176586 0
-0.007884 -0.102905 0
-0.007634 -0.099635 0
-0.007145 -0.093252 0
-0.004744 -0.061919 0
+0.000000 +0.000000 0
+0.000000 +0.000000 0
+0.000000 +0.000000 0
-0.015843 -0.206775 0
-0.015146 -0.197686 0
-0.016286 -0.212559 0
-0.016333 -0.213177 0
-0.016504 -0.215403 0
-0.015960 -0.208310 0
-0.014911 -0.194612 0
-0.015280 -0.199434 0
-0.014293 -0.186543 0
-0.014194 -0.185259 0
-0.013906 -0.181501 0
-0.014298 -0.186611 0
-0.014476 -0.188940 0
-0.013223 -0.172588 0
-0.015424 -0.201315 0
-0.015214 -0.198567 0
-0.015737 -0.205400 0
-0.014558 -0.190004 0
-0.012341 -0.161077 0
-0.013106 -0.171062 0
-0.011561 -0.150892 0
-0.010228 -0.133495 0
-0.010306 -0.134516 0
-0.010827 -0.141317 0
-0.013153 -0.171664 0
-0.013712 -0.178967 0
-0.012540 -0.163664 0
-0.016268 -0.212328 0
-0.016400 -0.214045 0
-0.016072 -0.209769 0
-0.014734 -0.192307 0
-0.015098 -0.197061 0
-0.014312 -0.186796 0
-0.012190 -0.159095 0
-0.012836 -0.167538 0
-0.011495 -0.150024 0
-0.005403 -0.070524 0
-0.008411 -0.109782 0
-0.002636 -0.034409 0
-0.014510 -0.189382 0
-0.014849 -0.193804 0
-0.014390 -0.187817 0
-0.008999 -0.117454 0
-0.011257 -0.146920 0
-0.006622 -0.086432 0
-0.004335 -0.056574 0
-0.007200 -0.093971 0
-0.001988 -0.025949 0
+0.005911 +0.077146 0
+0.000700 +0.009131 0
+0.010607 +0.138444 0
+0.005911 +0.077146 0
+0.010607 +0.138444 0
+0.000700 +0.009131 0
-0.007267 -0.094845 0
-0.008005 -0.104481 0
-0.006434 -0.083975 0
-0.003988 -0.052050 0
-0.004800 -0.062652 0
-0.003107 -0.040556 0
-0.003988 -0.052050 0
-0.003107 -0.040556 0
-0.004800 -0.062652 0
-0.007267 -0.094845 0
-0.006434 -0.083975 0
-0.008005 -0.104481 0
-0.008611 -0.112384 0
-0.009630 -0.125686 0
-0.007009 -0.091480 0
-0.000983 -0.012826 0
-0.002874 -0.037511 0
+0.000274 +0.003581 0
-0.000983 -0.012826 0
+0.000274 +0.003581 0
-0.002874 -0.037511 0
-0.008611 -0.112384 0
-0.007009 -0.091480 0
-0.009630 -0.125686 0
-0.009405 -0.122745 0
-0.009043 -0.118027 0
-0.009729 -0.126981 0
-0.005289 -0.069035 0
-0.005416 -0.070690 0
-0.005141 -0.067105 0
-0.000716 -0.009342 0
-0.001448 -0.018895 0
+0.000020 +0.000262 0
-0.005289 -0.069035 0
-0.005416 -0.070690 0
-0.005141 -0.067105 0
-0.012865 -0.167914 0
-0.011453 -0.149478 0
-0.013835 -0.180567 0
-0.003984 -0.051994 0
-0.004321 -0.056391 0
-0.003897 -0.050860 0
+0.008465 +0.110485 0
+0.004723 +0.061645 0
+0.011728 +0.153069 0
-0.003984 -0.051994 0
-0.004321 -0.056391 0
-0.003897 -0.050860 0
+0.005911 +0.077146 0
+0.000700 +0.009131 0
+0.010607 +0.138444 0
+0.018758 +0.244830 0
+0.017517 +0.228627 0
+0.017517 +0.228627 0
+0.013587 +0.177332 0
+0.013469 +0.175794 0
+0.013469 +0.175794 0
+0.015363 +0.200517 0
+0.014328 +0.187009 0
+0.016200 +0.211435 0
+0.017334 +0.226237 0
+0.017204 +0.224539 0
+0.017204 +0.224539 0
+0.015363 +0.200517 0
+0.016200 +0.211435 0
+0.014328 +0.187009 0
+0.009103 +0.118815 0
+0.009368 +0.122270 0
+0.009368 +0.122270 0
+0.012842 +0.167606 0
+0.011294 +0.147406 0
+0.014645 +0.191146 0
+0.017761 +0.231816 0
+0.017381 +0.226857 0
+0.017381 +0.226857 0
+0.012842 +0.167606 0
+0.014645 +0.191146 0
+0.011294 +0.147406 0
+0.011678 +0.152412 0
+0.012421 +0.162119 0
+0.010888 +0.142101 0
+0.011678 +0.152412 0
+0.012421 +0.162119 0
+0.010888 +0.142101 0
+0.016666 +0.217526 0
+0.016777 +0.218973 0
+0.016488 +0.215197 0
+0.016666 +0.217526 0
+0.016777 +0.218973 0
+0.016488 +0.215197 0
+0.002131 +0.027809 0
+0.005807 +0.075796 0
-0.001097 -0.014314 0
+0.002131 +0.027809 0
+0.005807 +0.075796 0
-0.001097 -0.014314 0
+0.014794 +0.193086 0
+0.015237 +0.198870 0
+0.014603 +0.190595 0
+0.014794 +0.193086 0
+0.015237 +0.198870 0
+0.014603 +0.190595 0
-0.011480 -0.149832 0
-0.013530 -0.176586 0
-0.007884 -0.102905 0
+0.005911 +0.077146 0
+0.000700 +0.009131 0
+0.010607 +0.138444 0
-0.007267 -0.094845 0
-0.006434 -0.083975 0
-0.008005 -0.104481 0
-0.007267 -0.094845 0
-0.008005 -0.104481 0
-0.006434 -0.083975 0
-0.003988 -0.052050 0
-0.004800 -0.062652 0
-0.003107 -0.040556 0
-0.003988 -0.052050 0
-0.003107 -0.040556 0
-0.004800 -0.062652 0
-0.008611 -0.112384 0
-0.007009 -0.091480 0
-0.009630 -0.125686 0
-0.008611 -0.112384 0
-0.009630 -0.125686 0
-0.007009 -0.091480 0
-0.000983 -0.012826 0
-0.002874 -0.037511 0
+0.000274 +0.003581 0
-0.000983 -0.012826 0
+0.000274 +0.003581 0
-0.002874 -0.037511 0
-0.005289 -0.069035 0
-0.005416 -0.070690 0
-0.005141 -0.067105 0
-0.009405 -0.122745 0
-0.009043 -0.118027 0
-0.009729 -0.126981 0
-0.005289 -0.069035 0
-0.005416 -0.070690 0
-0.005141 -0.067105 0
-0.000716 -0.009342 0
-0.001448 -0.018895 0
+0.000020 +0.000262 0
-0.003984 -0.051994 0
-0.004321 -0.056391 0
-0.003897 -0.050860 0
-0.012865 -0.167914 0
-0.011453 -0.149478 0
-0.013835 -0.180567 0
-0.003984 -0.051994 0
-0.004321 -0.056391 0
-0.003897 -0.050860 0
+0.008465 +0.110485 0
+0.004723 +0.061645 0
+0.011728 +0.153069 0
+0.000000 +0.000000 0
+0.000000 +0.000000 0
+0.000000 +0.000000 0
-0.007634 -0.099635 0
-0.004744 -0.061919 0
-0.007145 -0.093252 0
-0.015843 -0.206775 0
-0.016286 -0.212559 0
-0.015146 -0.197686 0
-0.014194 -0.185259 0
-0.014298 -0.186611 0
-0.013906 -0.181501 0
-0.014911 -0.194612 0
-0.014293 -0.186543 0
-0.015280 -0.199434 0
-0.016333 -0.213177 0
-0.015960 -0.208310 0
-0.016504 -0.215403 0
-0.014476 -0.188940 0
-0.015424 -0.201315 0
-0.013223 -0.172588 0
-0.010228 -0.133495 0
-0.010827 -0.141317 0
-0.010306 -0.134516 0
-0.012341 -0.161077 0
-0.011561 -0.150892 0
-0.013106 -0.171062 0
-0.015214 -0.198567 0
-0.014558 -0.190004 0
-0.015737 -0.205400 0
-0.016268 -0.212328 0
-0.016400 -0.214045 0
-0.016072 -0.209769 0
-0.013153 -0.171664 0
-0.013712 -0.178967 0
-0.012540 -0.163664 0
-0.012190 -0.159095 0
-0.012836 -0.167538 0
-0.011495 -0.150024 0
-0.014734 -0.192307 0
-0.015098 -0.197061 0
-0.014312 -0.186796 0
-0.014510 -0.189382 0
-0.014849 -0.193804 0
-0.014390 -0.187817 0
-0.005403 -0.070524 0
-0.008411 -0.109782 0
-0.002636 -0.034409 0
-0.004335 -0.056574 0
-0.007200 -0.093971 0
-0.001988 -0.025949 0
-0.008999 -0.117454 0
-0.011257 -0.146920 0
-0.006622 -0.086432 0
-0.000045 -0.000587 0
-0.001155 -0.015070 0
-0.001155 -0.015070 0
-0.007634 -0.099635 0
-0.007145 -0.093252 0
-0.004744 -0.061919 0
+0.000000 +0.000000 0
+0.000000 +0.000000 0
+0.000000 +0.000000 0
-0.007513 -0.098056 0
-0.007358 -0.096039 0
-0.007506 -0.097969 0
-0.007441 -0.097119 0
-0.007416 -0.096788 0
-0.007416 -0.096788 0
-0.007513 -0.098056 0
-0.007506 -0.097969 0
-0.007358 -0.096039 0
-0.007164 -0.093507 0
-0.007136 -0.093134 0
-0.007136 -0.093134 0
-0.006959 -0.090821 0
-0.006605 -0.086210 0
-0.006933 -0.090485 0
-0.005956 -0.077732 0
-0.006182 -0.080682 0
-0.006182 -0.080682 0
-0.006959 -0.090821 0
-0.006933 -0.090485 0
-0.006605 -0.086210 0
-0.005404 -0.070528 0
-0.005603 -0.073124 0
-0.005603 -0.073124 0
-0.006608 -0.086247 0
-0.006844 -0.089320 0
-0.006348 -0.082851 0
-0.007013 -0.091531 0
-0.007189 -0.093835 0
-0.006807 -0.088846 0
-0.007013 -0.091531 0
-0.007189 -0.093835 0
-0.006807 -0.088846 0
-0.006608 -0.086247 0
-0.006844 -0.089320 0
-0.006348 -0.082851 0
-0.003183 -0.041542 0
-0.004550 -0.059386 0
-0.001696 -0.022139 0
-0.004792 -0.062543 0
-0.005516 -0.071997 0
-0.004304 -0.056180 0
-0.004792 -0.062543 0
-0.005516 -0.071997 0
-0.004304 -0.056180 0
-0.003183 -0.041542 0
-0.004550 -0.059386 0
-0.001696 -0.022139 0
+0.018758 +0.244830 0
+0.017517 +0.228627 0
+0.017517 +0.228627 0
+0.005911 +0.077146 0
+0.010607 +0.138444 0
+0.000700 +0.009131 0
+0.015363 +0.200517 0
+0.014328 +0.187009 0
+0.016200 +0.211435 0
+0.017334 +0.226237 0
+0.017204 +0.224539 0
+0.017204 +0.224539 0
+0.015363 +0.200517 0
+0.016200 +0.211435 0
+0.014328 +0.187009 0
+0.013587 +0.177332 0
+0.013469 +0.175794 0
+0.013469 +0.175794 0
+0.012842 +0.167606 0
+0.011294 +0.147406 0
+0.014645 +0.191146 0
+0.017761 +0.231816 0
+0.017381 +0.226857 0
+0.017381 +0.226857 0
+0.012842 +0.167606 0
+0.014645 +0.191146 0
+0.011294 +0.147406 0
+0.009103 +0.118815 0
+0.009368 +0.122270 0
+0.009368 +0.122270 0
+0.011678 +0.152412 0
+0.012421 +0.162119 0
+0.010888 +0.142101 0
+0.016666 +0.217526 0
+0.016777 +0.218973 0
+0.016488 +0.215197 0
+0.016666 +0.217526 0
+0.016777 +0.218973 0
+0.016488 +0.215197 0
+0.011678 +0.152412 0
+0.012421 +0.162119 0
+0.010888 +0.142101 0
+0.002131 +0.027809 0
+0.005807 +0.075796 0
-0.001097 -0.014314 0
+0.014794 +0.193086 0
+0.015237 +0.198870 0
+0.014603 +0.190595 0
+0.014794 +0.193086 0
+0.015237 +0.198870 0
+0.014603 +0.190595 0
+0.002131 +0.027809 0
+0.005807 +0.075796 0
-0.001097 -0.014314 0
+0.018758 +0.244830 0
+0.017517 +0.228627 0
+0.017517 +0.228627 0
+0.018758 +0.244830 0
+0.017517 +0.228627 0
+0.017517 +0.228627 0
-0.000045 -0.000587 0