# vtk DataFile Version 2.0
MyTitle
ASCII
DATASET UNSTRUCTURED_GRID
POINTS 2645 double
0.000000 0.000000 0.000000
1.000000 0.000000 0.000000
1.000000 1.000000 0.000000
0.000000 1.000000 0.000000
0.420000 0.420000 0.000000
0.580000 0.420000 0.000000
0.580000 0.580000 0.000000
0.420000 0.580000 0.000000
0.358579 0.358579 0.000000
0.641421 0.358579 0.000000
0.641421 0.641421 0.000000
0.358579 0.641421 0.000000
2.000000 0.000000 0.000000
2.000000 1.000000 0.000000
1.420000 0.420000 0.000000
1.580000 0.420000 0.000000
1.580000 0.580000 0.000000
1.420000 0.580000 0.000000
1.358579 0.358579 0.000000
1.641421 0.358579 0.000000
1.641421 0.641421 0.000000
1.358579 0.641421 0.000000
3.000000 0.000000 0.000000
3.000000 1.000000 0.000000
2.420000 0.420000 0.000000
2.580000 0.420000 0.000000
2.580000 0.580000 0.000000
2.420000 0.580000 0.000000
2.358579 0.358579 0.000000
2.641421 0.358579 0.000000
2.641421 0.641421 0.000000
2.358579 0.641421 0.000000
4.000000 0.000000 0.000000
4.000000 1.000000 0.000000
3.420000 0.420000 0.000000
3.580000 0.420000 0.000000
3.580000 0.580000 0.000000
3.420000 0.580000 0.000000
3.358579 0.358579 0.000000
3.641421 0.358579 0.000000
3.641421 0.641421 0.000000
3.358579 0.641421 0.000000
5.000000 0.000000 0.000000
5.000000 1.000000 0.000000
4.420000 0.420000 0.000000
4.580000 0.420000 0.000000
4.580000 0.580000 0.000000
4.420000 0.580000 0.000000
4.358579 0.358579 0.000000
4.641421 0.358579 0.000000
4.641421 0.641421 0.000000
4.358579 0.641421 0.000000
1.000000 2.000000 0.000000
0.000000 2.000000 0.000000
0.420000 1.420000 0.000000
0.580000 1.420000 0.000000
0.580000 1.580000 0.000000
0.420000 1.580000 0.000000
0.358579 1.358579 0.000000
0.641421 1.358579 0.000000
0.641421 1.641421 0.000000
0.358579 1.641421 0.000000
2.000000 2.000000 0.000000
1.420000 1.420000 0.000000
1.580000 1.420000 0.000000
1.580000 1.580000 0.000000
1.420000 1.580000 0.000000
1.358579 1.358579 0.000000
1.641421 1.358579 0.000000
1.641421 1.641421 0.000000
1.358579 1.641421 0.000000
3.000000 2.000000 0.000000
2.420000 1.420000 0.000000
2.580000 1.420000 0.000000
2.580000 1.580000 0.000000
2.420000 1.580000 0.000000
2.358579 1.358579 0.000000
2.641421 1.358579 0.000000
2.641421 1.641421 0.000000
2.358579 1.641421 0.000000
4.000000 2.000000 0.000000
3.420000 1.420000 0.000000
3.580000 1.420000 0.000000
3.580000 1.580000 0.000000
3.420000 1.580000 0.000000
3.358579 1.358579 0.000000
3.641421 1.358579 0.000000
3.641421 1.641421 0.000000
3.358579 1.641421 0.000000
5.000000 2.000000 0.000000
4.420000 1.420000 0.000000
4.580000 1.420000 0.000000
4.580000 1.580000 0.000000
4.420000 1.580000 0.000000
4.358579 1.358579 0.000000
4.641421 1.358579 0.000000
4.641421 1.641421 0.000000
4.358579 1.641421 0.000000
1.000000 3.000000 0.000000
0.000000 3.000000 0.000000
0.420000 2.420000 0.000000
0.580000 2.420000 0.000000
0.580000 2.580000 0.000000
0.420000 2.580000 0.000000
0.358579 2.358579 0.000000
0.641421 2.358579 0.000000
0.641421 2.641421 0.000000
0.358579 2.641421 0.000000
2.000000 3.000000 0.000000
1.420000 2.420000 0.000000
1.580000 2.420000 0.000000
1.580000 2.580000 0.000000
1.420000 2.580000 0.000000
1.358579 2.358579 0.000000
1.641421 2.358579 0.000000
1.641421 2.641421 0.000000
1.358579 2.641421 0.000000
3.000000 3.000000 0.000000
4.000000 3.000000 0.000000
3.420000 2.420000 0.000000
3.580000 2.420000 0.000000
3.580000 2.580000 0.000000
3.420000 2.580000 0.000000
3.358579 2.358579 0.000000
3.641421 2.358579 0.000000
3.641421 2.641421 0.000000
3.358579 2.641421 0.000000
5.000000 3.000000 0.000000
4.420000 2.420000 0.000000
4.580000 2.420000 0.000000
4.580000 2.580000 0.000000
4.420000 2.580000 0.000000
4.358579 2.358579 0.000000
4.641421 2.358579 0.000000
4.641421 2.641421 0.000000
4.358579 2.641421 0.000000
1.000000 4.000000 0.000000
0.000000 4.000000 0.000000
0.420000 3.420000 0.000000
0.580000 3.420000 0.000000
0.580000 3.580000 0.000000
0.420000 3.580000 0.000000
0.358579 3.358579 0.000000
0.641421 3.358579 0.000000
0.641421 3.641421 0.000000
0.358579 3.641421 0.000000
2.000000 4.000000 0.000000
1.420000 3.420000 0.000000
1.580000 3.420000 0.000000
1.580000 3.580000 0.000000
1.420000 3.580000 0.000000
1.358579 3.358579 0.000000
1.641421 3.358579 0.000000
1.641421 3.641421 0.000000
1.358579 3.641421 0.000000
3.000000 4.000000 0.000000
2.420000 3.420000 0.000000
2.580000 3.420000 0.000000
2.580000 3.580000 0.000000
2.420000 3.580000 0.000000
2.358579 3.358579 0.000000
2.641421 3.358579 0.000000
2.641421 3.641421 0.000000
2.358579 3.641421 0.000000
4.000000 4.000000 0.000000
3.420000 3.420000 0.000000
3.580000 3.420000 0.000000
3.580000 3.580000 0.000000
3.420000 3.580000 0.000000
3.358579 3.358579 0.000000
3.641421 3.358579 0.000000
3.641421 3.641421 0.000000
3.358579 3.641421 0.000000
5.000000 4.000000 0.000000
4.420000 3.420000 0.000000
4.580000 3.420000 0.000000
4.580000 3.580000 0.000000
4.420000 3.580000 0.000000
4.358579 3.358579 0.000000
4.641421 3.358579 0.000000
4.641421 3.641421 0.000000
4.358579 3.641421 0.000000
1.000000 5.000000 0.000000
0.000000 5.000000 0.000000
0.420000 4.420000 0.000000
0.580000 4.420000 0.000000
0.580000 4.580000 0.000000
0.420000 4.580000 0.000000
0.358579 4.358579 0.000000
0.641421 4.358579 0.000000
0.641421 4.641421 0.000000
0.358579 4.641421 0.000000
2.000000 5.000000 0.000000
1.420000 4.420000 0.000000
1.580000 4.420000 0.000000
1.580000 4.580000 0.000000
1.420000 4.580000 0.000000
1.358579 4.358579 0.000000
1.641421 4.358579 0.000000
1.641421 4.641421 0.000000
1.358579 4.641421 0.000000
3.000000 5.000000 0.000000
2.420000 4.420000 0.000000
2.580000 4.420000 0.000000
2.580000 4.580000 0.000000
2.420000 4.580000 0.000000
2.358579 4.358579 0.000000
2.641421 4.358579 0.000000
2.641421 4.641421 0.000000
2.358579 4.641421 0.000000
4.000000 5.000000 0.000000
3.420000 4.420000 0.000000
3.580000 4.420000 0.000000
3.580000 4.580000 0.000000
3.420000 4.580000 0.000000
3.358579 4.358579 0.000000
3.641421 4.358579 0.000000
3.641421 4.641421 0.000000
3.358579 4.641421 0.000000
5.000000 5.000000 0.000000
4.420000 4.420000 0.000000
4.580000 4.420000 0.000000
4.580000 4.580000 0.000000
4.420000 4.580000 0.000000
4.358579 4.358579 0.000000
4.641421 4.358579 0.000000
4.641421 4.641421 0.000000
4.358579 4.641421 0.000000
0.500000 0.000000 0.000000
0.250000 0.000000 0.000000
0.750000 0.000000 0.000000
1.000000 0.500000 0.000000
1.000000 0.250000 0.000000
1.000000 0.750000 0.000000
0.500000 1.000000 0.000000
0.750000 1.000000 0.000000
0.250000 1.000000 0.000000
0.000000 0.500000 0.000000
0.000000 0.750000 0.000000
0.000000 0.250000 0.000000
0.500000 0.420000 0.000000
0.460000 0.420000 0.000000
0.540000 0.420000 0.000000
0.580000 0.500000 0.000000
0.580000 0.460000 0.000000
0.580000 0.540000 0.000000
0.500000 0.580000 0.000000
0.540000 0.580000 0.000000
0.460000 0.580000 0.000000
0.420000 0.500000 0.000000
0.420000 0.540000 0.000000
0.420000 0.460000 0.000000
0.500000 0.300001 0.000000
0.423464 0.315225 0.000000
0.576536 0.315225 0.000000
0.699999 0.500000 0.000000
0.684775 0.423464 0.000000
0.684775 0.576536 0.000000
0.500000 0.699999 0.000000
0.576536 0.684775 0.000000
0.423464 0.684775 0.000000
0.300001 0.500000 0.000000
0.315225 0.576536 0.000000
0.315225 0.423464 0.000000
0.389290 0.389290 0.000000
0.404645 0.404645 0.000000
0.373934 0.373934 0.000000
0.610710 0.389290 0.000000
0.595355 0.404645 0.000000
0.626066 0.373934 0.000000
0.610710 0.610710 0.000000
0.595355 0.595355 0.000000
0.626066 0.626066 0.000000
0.389290 0.610710 0.000000
0.404645 0.595355 0.000000
0.373934 0.626066 0.000000
0.179290 0.179290 0.000000
0.268934 0.268934 0.000000
0.089645 0.089645 0.000000
0.820710 0.179290 0.000000
0.731066 0.268934 0.000000
0.910355 0.089645 0.000000
0.820710 0.820710 0.000000
0.731066 0.731066 0.000000
0.910355 0.910355 0.000000
0.179290 0.820710 0.000000
0.268934 0.731066 0.000000
0.089645 0.910355 0.000000
1.500000 0.000000 0.000000
1.250000 0.000000 0.000000
1.750000 0.000000 0.000000
2.000000 0.500000 0.000000
2.000000 0.250000 0.000000
2.000000 0.750000 0.000000
1.500000 1.000000 0.000000
1.750000 1.000000 0.000000
1.250000 1.000000 0.000000
1.500000 0.420000 0.000000
1.460000 0.420000 0.000000
1.540000 0.420000 0.000000
1.580000 0.500000 0.000000
1.580000 0.460000 0.000000
1.580000 0.540000 0.000000
1.500000 0.580000 0.000000
1.540000 0.580000 0.000000
1.460000 0.580000 0.000000
1.420000 0.500000 0.000000
1.420000 0.540000 0.000000
1.420000 0.460000 0.000000
1.500000 0.300001 0.000000
1.423464 0.315225 0.000000
1.576536 0.315225 0.000000
1.699999 0.500000 0.000000
1.684775 0.423464 0.000000
1.684775 0.576536 0.000000
1.500000 0.699999 0.000000
1.576536 0.684775 0.000000
1.423464 0.684775 0.000000
1.300001 0.500000 0.000000
1.315225 0.576536 0.000000
1.315225 0.423464 0.000000
1.389290 0.389290 0.000000
1.404645 0.404645 0.000000
1.373934 0.373934 0.000000
1.610710 0.389290 0.000000
1.595355 0.404645 0.000000
1.626066 0.373934 0.000000
1.610710 0.610710 0.000000
1.595355 0.595355 0.000000
1.626066 0.626066 0.000000
1.389290 0.610710 0.000000
1.404645 0.595355 0.000000
1.373934 0.626066 0.000000
1.179290 0.179290 0.000000
1.268934 0.268934 0.000000
1.089645 0.089645 0.000000
1.820710 0.179290 0.000000
1.731066 0.268934 0.000000
1.910355 0.089645 0.000000
1.820710 0.820710 0.000000
1.731066 0.731066 0.000000
1.910355 0.910355 0.000000
1.179290 0.820710 0.000000
1.268934 0.731066 0.000000
1.089645 0.910355 0.000000
2.500000 0.000000 0.000000
2.250000 0.000000 0.000000
2.750000 0.000000 0.000000
3.000000 0.500000 0.000000
3.000000 0.250000 0.000000
3.000000 0.750000 0.000000
2.500000 1.000000 0.000000
2.750000 1.000000 0.000000
2.250000 1.000000 0.000000
2.500000 0.420000 0.000000
2.460000 0.420000 0.000000
2.540000 0.420000 0.000000
2.580000 0.500000 0.000000
2.580000 0.460000 0.000000
2.580000 0.540000 0.000000
2.500000 0.580000 0.000000
2.540000 0.580000 0.000000
2.460000 0.580000 0.000000
2.420000 0.500000 0.000000
2.420000 0.540000 0.000000
2.420000 0.460000 0.000000
2.500000 0.300001 0.000000
[...]
POINT_DATA 2645
VECTORS sol double
+0.000000 +0.000000 0
+0.000000 +0.000000 0
-0.235382 +0.033455 0
+0.000000 +0.000000 0
-0.179970 +0.025580 0
-0.210716 +0.028796 0
-0.248845 +0.035369 0
-0.211128 +0.031162 0
-0.132841 +0.018881 0
-0.178578 +0.023552 0
-0.245458 +0.034887 0
-0.179233 +0.027304 0
+0.000000 +0.000000 0
+0.006305 -0.033653 0
-0.205885 +0.003023 0
-0.177434 -0.004182 0
-0.204450 -0.004472 0
-0.240059 +0.004721 0
-0.175013 +0.004528 0
-0.132996 -0.006037 0
-0.172646 -0.007842 0
-0.235699 +0.008565 0
+0.000000 +0.000000 0
+0.146403 -0.020909 0
+0.114575 -0.045746 0
+0.136033 -0.043795 0
+0.163697 -0.052749 0
+0.138091 -0.055078 0
+0.082545 -0.036717 0
+0.114777 -0.033785 0
+0.162558 -0.048124 0
+0.118131 -0.052165 0
+0.000000 +0.000000 0
-0.009416 +0.054010 0
+0.124084 +0.023244 0
+0.108837 +0.031651 0
+0.121566 +0.037616 0
+0.141427 +0.026990 0
+0.105957 +0.015698 0
+0.083780 +0.028069 0
+0.101828 +0.039267 0
+0.137568 +0.020375 0
+0.000000 +0.000000 0
+0.000000 +0.000000 0
-0.003283 +0.047665 0
-0.007199 +0.041295 0
-0.013592 +0.049130 0
-0.009954 +0.057099 0
+0.001020 +0.039889 0
-0.005314 +0.030481 0
-0.015334 +0.042213 0
-0.009819 +0.056322 0
-0.005406 +0.033525 0
+0.000000 +0.000000 0
-0.215267 +0.056836 0
-0.250570 +0.065013 0
-0.216438 +0.064294 0
-0.187946 +0.056115 0
-0.182288 +0.046255 0
-0.244615 +0.059703 0
-0.184223 +0.058565 0
-0.141913 +0.045111 0
+0.088920 -0.012638 0
-0.173832 +0.024707 0
-0.129032 +0.010355 0
-0.091453 +0.012998 0
-0.131887 +0.026730 0
-0.184699 +0.026252 0
-0.108281 +0.002256 0
-0.049389 +0.007020 0
-0.112977 +0.029192 0
+0.003557 -0.020403 0
+0.219882 -0.081347 0
+0.232304 -0.080217 0
+0.218881 -0.076914 0
+0.213122 -0.077438 0
+0.187197 -0.072400 0
+0.211806 -0.070162 0
+0.185573 -0.065178 0
+0.180550 -0.065635 0
-0.146367 +0.020703 0
+0.030464 +0.024863 0
-0.006954 +0.039887 0
-0.040902 +0.035006 0
-0.003658 +0.020984 0
+0.054271 +0.017042 0
-0.007388 +0.042380 0
-0.063121 +0.033727 0
-0.001976 +0.011333 0
+0.000000 +0.000000 0
-0.141192 +0.074962 0
-0.125685 +0.064984 0
-0.138700 +0.060594 0
-0.158264 +0.069585 0
-0.121042 +0.070944 0
-0.098073 +0.053916 0
-0.116954 +0.047381 0
-0.151844 +0.061510 0
+0.146367 -0.020703 0
+0.000000 +0.000000 0
+0.104042 +0.014674 0
+0.125416 +0.017626 0
+0.153156 +0.007714 0
+0.127287 +0.006368 0
+0.073612 +0.014522 0
+0.105483 +0.020382 0
+0.153612 +0.003186 0
+0.108530 +0.002046 0
-0.003557 +0.020403 0
+0.201971 +0.021388 0
+0.196266 +0.019251 0
+0.202504 +0.017022 0
+0.215429 +0.016580 0
+0.170825 +0.021514 0
+0.166258 +0.016343 0
+0.171699 +0.014399 0
+0.197484 +0.011989 0
-0.088920 +0.012638 0
+0.005406 -0.033525 0
-0.202504 -0.017022 0
-0.215429 -0.016580 0
-0.201971 -0.021388 0
-0.196266 -0.019251 0
-0.171699 -0.014399 0
-0.197484 -0.011989 0
-0.170825 -0.021514 0
-0.166258 -0.016343 0
+0.000000 +0.000000 0
-0.153156 -0.007714 0
-0.127287 -0.006368 0
-0.104042 -0.014674 0
-0.125416 -0.017626 0
-0.153612 -0.003186 0
-0.108530 -0.002046 0
-0.073612 -0.014522 0
-0.105483 -0.020382 0
+0.009416 -0.054010 0
+0.000000 +0.000000 0
+0.138700 -0.060594 0
+0.158264 -0.069585 0
+0.141192 -0.074962 0
+0.125685 -0.064984 0
+0.116954 -0.047381 0
+0.151844 -0.061510 0
+0.121042 -0.070944 0
+0.098073 -0.053916 0
-0.146403 +0.020909 0
+0.040902 -0.035006 0
+0.003658 -0.020984 0
-0.030464 -0.024863 0
+0.006954 -0.039887 0
+0.063121 -0.033727 0
+0.001976 -0.011333 0
-0.054271 -0.017042 0
+0.007388 -0.042380 0
-0.006305 +0.033653 0
-0.218881 +0.076914 0
-0.213122 +0.077438 0
-0.219882 +0.081347 0
-0.232304 +0.080217 0
-0.185573 +0.065178 0
-0.180550 +0.065635 0
-0.187197 +0.072400 0
-0.211806 +0.070162 0
+0.235382 -0.033455 0
+0.091453 -0.012998 0
+0.131887 -0.026730 0
+0.173832 -0.024707 0
+0.129032 -0.010355 0
+0.049389 -0.007020 0
+0.112977 -0.029192 0
+0.184699 -0.026252 0
+0.108281 -0.002256 0
+0.000000 +0.000000 0
+0.216438 -0.064294 0
+0.187946 -0.056115 0
+0.215267 -0.056836 0
+0.250570 -0.065013 0
+0.184223 -0.058565 0
+0.141913 -0.045111 0
+0.182288 -0.046255 0
+0.244615 -0.059703 0
+0.000000 +0.000000 0
+0.000000 +0.000000 0
+0.013592 -0.049130 0
+0.009954 -0.057099 0
+0.003283 -0.047665 0
+0.007199 -0.041295 0
+0.015334 -0.042213 0
+0.009819 -0.056322 0
-0.001020 -0.039889 0
+0.005314 -0.030481 0
+0.000000 +0.000000 0
-0.121566 -0.037616 0
-0.141427 -0.026990 0
-0.124084 -0.023244 0
-0.108837 -0.031651 0
-0.101828 -0.039267 0
-0.137568 -0.020375 0
-0.105957 -0.015698 0
-0.083780 -0.028069 0
+0.000000 +0.000000 0
-0.163697 +0.052749 0
-0.138091 +0.055078 0
-0.114575 +0.045746 0
-0.136033 +0.043795 0
-0.162558 +0.048124 0
-0.118131 +0.052165 0
-0.082545 +0.036717 0
-0.114777 +0.033785 0
+0.000000 +0.000000 0
+0.204450 +0.004472 0
+0.240059 -0.004721 0
+0.205885 -0.003023 0
+0.177434 +0.004182 0
+0.172646 +0.007842 0
+0.235699 -0.008565 0
+0.175013 -0.004528 0
+0.132996 +0.006037 0
+0.000000 +0.000000 0
+0.248845 -0.035369 0
+0.211128 -0.031162 0
+0.179970 -0.025580 0
+0.210716 -0.028796 0
+0.245458 -0.034887 0
+0.179233 -0.027304 0
+0.132841 -0.018881 0
+0.178578 -0.023552 0
+0.000000 +0.000000 0
+0.000000 +0.000000 0
+0.000000 +0.000000 0
-0.198520 +0.019328 0
-0.112964 +0.010168 0
-0.233845 +0.026636 0
-0.201698 +0.037556 0
-0.236205 +0.040174 0
-0.115069 +0.022243 0
+0.000000 +0.000000 0
+0.000000 +0.000000 0
+0.000000 +0.000000 0
-0.201871 +0.028215 0
-0.192445 +0.027140 0
-0.207992 +0.028769 0
-0.237051 +0.032967 0
-0.225573 +0.031084 0
-0.244836 +0.034402 0
-0.237311 +0.034455 0
-0.244978 +0.035216 0
-0.225922 +0.033088 0
-0.202042 +0.029194 0
-0.208276 +0.030396 0
-0.192521 +0.027576 0
-0.142711 +0.019561 0
-0.135916 +0.018991 0
-0.157944 +0.021224 0
-0.224871 +0.029738 0
-0.203010 +0.026602 0
-0.240462 +0.032820 0
-0.225666 +0.034297 0
-0.240947 +0.035604 0
-0.203815 +0.031221 0
-0.142969 +0.021043 0
-0.158382 +0.023736 0
-0.136033 +0.019662 0
-0.157421 +0.022375 0
-0.168908 +0.024007 0
-0.145209 +0.020639 0
-0.196588 +0.026424 0
-0.204141 +0.027671 0
-0.188166 +0.025053 0
-0.249455 +0.035456 0
-0.249670 +0.035486 0
-0.248197 +0.035277 0
-0.197131 +0.029536 0
-0.204621 +0.030427 0
-0.188771 +0.028522 0
-0.032435 +0.004610 0
-0.074654 +0.010611 0
-0.008240 +0.001171 0
-0.085010 +0.009542 0
-0.129120 +0.015947 0
-0.042480 +0.004280 0
-0.240060 +0.034120 0
-0.238976 +0.033966 0
-0.239794 +0.034082 0
-0.085918 +0.014752 0
-0.129980 +0.020879 0
-0.043109 +0.007885 0
+0.000000 +0.000000 0
+0.000000 +0.000000 0
+0.000000 +0.000000 0
-0.018706 -0.025253 0
-0.012887 -0.014078 0
-0.011582 -0.031106 0
-0.172247 +0.005481 0
-0.090880 -0.013929 0
-0.217193 +0.021576 0
-0.197745 -0.000523 0
-0.203402 +0.001287 0
-0.189007 -0.002361 0
-0.197642 -0.004491 0
-0.189110 -0.004376 0
-0.202779 -0.004522 0
-0.228980 +0.000212 0
-0.218273 -0.002134 0
-0.236271 +0.002514 0
-0.230337 +0.003863 0
-0.237102 +0.004292 0
-0.219831 +0.003438 0
-0.140835 -0.000617 0
-0.155181 +0.001877 0
-0.134990 -0.003189 0
-0.142945 -0.010362 0
-0.136675 -0.008604 0
-0.155600 -0.010210 0
-0.213598 +0.001186 0
-0.193679 -0.003767 0
-0.229386 +0.005609 0
-0.219079 +0.009005 0
-0.232898 +0.009700 0
-0.198475 +0.007004 0
-0.192363 +0.003880 0
-0.199607 +0.003483 0
-0.184269 +0.004258 0
-0.156249 -0.005234 0
-0.167062 -0.004745 0
-0.144733 -0.005702 0
-0.190436 -0.006184 0
-0.197921 -0.005325 0
-0.182110 -0.007018 0
-0.240059 +0.006682 0
-0.240546 +0.005702 0
-0.238557 +0.007638 0
-0.084139 +0.004897 0
-0.127116 +0.005256 0
-0.042259 +0.003099 0
-0.037022 -0.006657 0
-0.077691 -0.007021 0
-0.011853 -0.004285 0
-0.079479 -0.019609 0
-0.123568 -0.013335 0
-0.036680 -0.026422 0
-0.230883 +0.020903 0
-0.228985 +0.014489 0
-0.233882 +0.027276 0
+0.000000 +0.000000 0
+0.000000 +0.000000 0
+0.000000 +0.000000 0
+0.123785 -0.012291 0
+0.070470 -0.006496 0
+0.145666 -0.016802 0
+0.154854 -0.055328 0
+0.165889 -0.043546 0
+0.095727 -0.049928 0
+0.129809 -0.046380 0
+0.123247 -0.046466 0
+0.134090 -0.045480 0
+0.154301 -0.049722 0
+0.146189 -0.047093 0
+0.160159 -0.051617 0
+0.156050 -0.055756 0
+0.161204 -0.054699 0
+0.148274 -0.055875 0
+0.130170 -0.051918 0
+0.135140 -0.053892 0
+0.123259 -0.049179 0
+0.090735 -0.032419 0
+0.085547 -0.034055 0
+0.101117 -0.032639 0
+0.145826 -0.039370 0
+0.130963 -0.036275 0
+0.157282 -0.043662 0
+0.152507 -0.054490 0
+0.161526 -0.052210 0
+0.136975 -0.054443 0
+0.089014 -0.044537 0
+0.101359 -0.048749 0
+0.084038 -0.040544 0
+0.099173 -0.041590 0
+0.106999 -0.043754 0
+0.090876 -0.039238 0
+0.126641 -0.039092 0
+0.131647 -0.041512 0
+0.121074 -0.036491 0
+0.164685 -0.050930 0
+0.164550 -0.051959 0
+0.164145 -0.049683 0
+0.129386 -0.054140 0
+0.134058 -0.054732 0
+0.124145 -0.053322 0
+0.015604 -0.014148 0
+0.043439 -0.024262 0
+0.001516 -0.006188 0
+0.053853 -0.010669 0
+0.082440 -0.020714 0
+0.026710 -0.003897 0
+0.158586 -0.034540 0
+0.158745 -0.040703 0
+0.155117 -0.028106 0
+0.059883 -0.043518 0
+0.087286 -0.047203 0
+0.033236 -0.039192 0
+0.000000 +0.000000 0
+0.000000 +0.000000 0
+0.000000 +0.000000 0
+0.031717 +0.040270 0
+0.021753 +0.022422 0
+0.020099 +0.049735 0
+0.077884 +0.028234 0
+0.032779 +0.044314 0
+0.116144 +0.004902 0
+0.119824 +0.028364 0
+0.122834 +0.026005 0
+0.115110 +0.030260 0
+0.119620 +0.035696 0
+0.115274 +0.033920 0
+0.121725 +0.036932 0
+0.135101 +0.033330 0
+0.129164 +0.035755 0
+0.139210 +0.030383 0
+0.137469 +0.025991 0
+0.140658 +0.026718 0
+0.131885 +0.024822 0
+0.086431 +0.020055 0
+0.094432 +0.017680 0
+0.083826 +0.023618 0
+0.089986 +0.037119 0
+0.086674 +0.032942 0
+0.095099 +0.039535 0
+0.121618 +0.031678 0
+0.111262 +0.036596 0
+0.131881 +0.025847 0
+0.131163 +0.014572 0
+0.138002 +0.016497 0
+0.119593 +0.014707 0
+0.116189 +0.019548 0
+0.120432 +0.021406 0
+0.111433 +0.017600 0
+0.096981 +0.030199 0
+0.103056 +0.031014 0
+0.090484 +0.029251 0
+0.112819 +0.038780 0
+0.117478 +0.038269 0
+0.107661 +0.039131 0
+0.140738 +0.023941 0
+0.141353 +0.025536 0
+0.139513 +0.022238 0
+0.051700 +0.001413 0
+0.077484 +0.007095 0
+0.026163 -0.000827 0
+0.028142 +0.015110 0
+0.052074 +0.021556 0
+0.011279 +0.007969 0
+0.043917 +0.045899 0
+0.071405 +0.041813 0
+0.017262 +0.050121 0
+0.134711 -0.000126 0
+0.132914 +0.009995 0
+0.139682 -0.010380 0
+0.000000 +0.000000 0
+0.000000 +0.000000 0
+0.000000 +0.000000 0
+0.000000 +0.000000 0
+0.000000 +0.000000 0
+0.000000 +0.000000 0
-0.047726 +0.051562 0
-0.030875 +0.029902 0
-0.038902 +0.058121 0
-0.005944 +0.046037 0
-0.004783 +0.047254 0
-0.006749 +0.044031 0
-0.010214 +0.046644 0
-0.008650 +0.044301 0
-0.011869 +0.048261 0
-0.012730 +0.054883 0
-0.013399 +0.052420 0
-0.011572 +0.056448 0
-0.006246 +0.053962 0
-0.008022 +0.055943 0
-0.004663 +0.051178 0
-0.002484 +0.032316 0
-0.000852 +0.035513 0
-0.003978 +0.030993 0
-0.008944 +0.033235 0
-0.006900 +0.031408 0
-0.011802 +0.037070 0
-0.018946 +0.053101 0
-0.018203 +0.048105 0
-0.015694 +0.056093 0
+0.000923 +0.050277 0
-0.003563 +0.054369 0
+0.001928 +0.045244 0
-0.001092 +0.044206 0
-0.002172 +0.046043 0
+0.000019 +0.042171 0
-0.006297 +0.036121 0
-0.006757 +0.038757 0
-0.005809 +0.033319 0
-0.014658 +0.046135 0
-0.014180 +0.047750 0
-0.015098 +0.044319 0
-0.009979 +0.057239 0
-0.009988 +0.057288 0
-0.009929 +0.056950 0
+0.007935 +0.017996 0
+0.005565 +0.028198 0
+0.006145 +0.008703 0
-0.001297 +0.007442 0
-0.002986 +0.017130 0
-0.000330 +0.001891 0
-0.014773 +0.021224 0
-0.015929 +0.031253 0
-0.009569 +0.010936 0
-0.009603 +0.055083 0
-0.009560 +0.054835 0
-0.009592 +0.055022 0
-0.179041 +0.044448 0
-0.220516 +0.040636 0
-0.100478 +0.041127 0
-0.028685 +0.031988 0
-0.023292 +0.036062 0
-0.018575 +0.018550 0
+0.000000 +0.000000 0
+0.000000 +0.000000 0
+0.000000 +0.000000 0
-0.240661 +0.063081 0
-0.229773 +0.060465 0
-0.247616 +0.064602 0
-0.240540 +0.066522 0
-0.247379 +0.066228 0
-0.230129 +0.065867 0
-0.209291 +0.062330 0
-0.214701 +0.063859 0
-0.200285 +0.059722 0
-0.207981 +0.058190 0
-0.199456 +0.057574 0
-0.213279 +0.057937 0
-0.226993 +0.054396 0
-0.206057 +0.050493 0
-0.241265 +0.057694 0
-0.224028 +0.061015 0
-0.239037 +0.060969 0
-0.204868 +0.060413 0
-0.153914 +0.052555 0
-0.167157 +0.056084 0
-0.146697 +0.048880 0
-0.148212 +0.041700 0
-0.142990 +0.042699 0
-0.162395 +0.043261 0
-0.200751 +0.051994 0
-0.208506 +0.054523 0
-0.192110 +0.049237 0
-0.249870 +0.062953 0
-0.250731 +0.064124 0
-0.247949 +0.061510 0
-0.202324 +0.062008 0
-0.209882 +0.063287 0
-0.193873 +0.060457 0
-0.166061 +0.051045 0
-0.177248 +0.053683 0
-0.154126 +0.048179 0
-0.086664 +0.019380 0
-0.131697 +0.031529 0
-0.043298 +0.009061 0
-0.235143 +0.045334 0
-0.235441 +0.051521 0
-0.236015 +0.039511 0
-0.090529 +0.043772 0
-0.134615 +0.050031 0
-0.047991 +0.038457 0
-0.041284 +0.017787 0
-0.084149 +0.030023 0
-0.013988 +0.007958 0
+0.056220 -0.032356 0
+0.031050 -0.034818 0
+0.075376 -0.023985 0
+0.047509 +0.017613 0
+0.070631 +0.003232 0
+0.020179 +0.027537 0
-0.156110 +0.018196 0
-0.166248 +0.021657 0
-0.143594 +0.014397 0
-0.114079 +0.012072 0
-0.122615 +0.011304 0
-0.103603 +0.012641 0
-0.115560 +0.020567 0
-0.104348 +0.016915 0
-0.124804 +0.023862 0
-0.157538 +0.026384 0
-0.145744 +0.026727 0
-0.166953 +0.025702 0
-0.161043 +0.013914 0
-0.178387 +0.020537 0
-0.136289 +0.007518 0
-0.063291 -0.000885 0
-0.082969 -0.000680 0
-0.052845 +0.002071 0
-0.066824 +0.019378 0
-0.054790 +0.013227 0
-0.087429 +0.024899 0
-0.164252 +0.032321 0
-0.140527 +0.031826 0
-0.180109 +0.030417 0
-0.181036 +0.025731 0
-0.177830 +0.025275 0
-0.183481 +0.026079 0
-0.119835 +0.006330 0
-0.124732 +0.008353 0
-0.114409 +0.004275 0
-0.070701 +0.010049 0
-0.081133 +0.011532 0
-0.059936 +0.008519 0
-0.123662 +0.028279 0
-0.128084 +0.027581 0
-0.118694 +0.028857 0
-0.213719 +0.030376 0
-0.197261 +0.028037 0
-0.226992 +0.032263 0
-0.048136 -0.018530 0
-0.076541 -0.008654 0
-0.020836 -0.026825 0
+0.044768 -0.006363 0
+0.003045 -0.000433 0
+0.072955 -0.010369 0
-0.057207 +0.033503 0
-0.083524 +0.031404 0
-0.031486 +0.034261 0
+0.110962 -0.027377 0
+0.136901 -0.025190 0
+0.062228 -0.025181 0
+0.093653 -0.033462 0
+0.058274 -0.030264 0
+0.100406 -0.026432 0
+0.233965 -0.083595 0
+0.228832 -0.083166 0
+0.235101 -0.082595 0
+0.232315 -0.080916 0
+0.233997 -0.081155 0
+0.227223 -0.079486 0
+0.223618 -0.079898 0
+0.223144 -0.079075 0
+0.220229 -0.079340 0
+0.222996 -0.081764 0
+0.219641 -0.080176 0
+0.223061 -0.082150 0
+0.206924 -0.073933 0
+0.197733 -0.074006 0
+0.212710 -0.072644 0
+0.198826 -0.066128 0
+0.207323 -0.068006 0
+0.191493 -0.065589 0
+0.182567 -0.065230 0
+0.183450 -0.065422 0
+0.182896 -0.065472 0
+0.176910 -0.068121 0
+0.178864 -0.066738 0
+0.180243 -0.070469 0
+0.205559 -0.077573 0
+0.213228 -0.079624 0
+0.196985 -0.075186 0
+0.223975 -0.075898 0
+0.228571 -0.078228 0
+0.218422 -0.073237 0
+0.204228 -0.071661 0
+0.212056 -0.074431 0
+0.195496 -0.068574 0
+0.198390 -0.072192 0
+0.206097 -0.074973 0
+0.189804 -0.069092 0
+0.092373 -0.049845 0
+0.136954 -0.059568 0
+0.049371 -0.041476 0
+0.167512 -0.043010 0
+0.184407 -0.055252 0
+0.155721 -0.031802 0
+0.089602 -0.036932 0
+0.134655 -0.049159 0
+0.046427 -0.027594 0
+0.111545 -0.034936 0
+0.139328 -0.048734 0
+0.095532 -0.023127 0
-0.091937 +0.052371 0
-0.050289 +0.056121 0
-0.123799 +0.039006 0
-0.106813 +0.003576 0
-0.134851 +0.013435 0
-0.056388 -0.008322 0
+0.011569 +0.033448 0
+0.021080 +0.029376 0
+0.002150 +0.036975 0
-0.024116 +0.038520 0
-0.015479 +0.039480 0
-0.032654 +0.037014 0
-0.023104 +0.028977 0
-0.032313 +0.032275 0
-0.013472 +0.025181 0
+0.013918 +0.023715 0
+0.005153 +0.022534 0
+0.022416 +0.024497 0
+0.033603 +0.031620 0
+0.047433 +0.024230 0
+0.014360 +0.038069 0
-0.046615 +0.043021 0
-0.028701 +0.044190 0
-0.058506 +0.039287 0
-0.046758 +0.021204 0
-0.059148 +0.027472 0
-0.026462 +0.015804 0
+0.041553 +0.008652 0
+0.022157 +0.008893 0
+0.052332 +0.011627 0
+0.042958 +0.021138 0
+0.036843 +0.023050 0
+0.048903 +0.019130 0
-0.007242 +0.041540 0
-0.007114 +0.040804 0
-0.007340 +0.042101 0
-0.052698 +0.034734 0
-0.046956 +0.034960 0
-0.058228 +0.034357 0
-0.002828 +0.016223 0
-0.003246 +0.018616 0
-0.002398 +0.013753 0
+0.111275 -0.004029 0
+0.084088 +0.005957 0
+0.132064 -0.012916 0
-0.008549 +0.049039 0
-0.007891 +0.045263 0
-0.009080 +0.052085 0
-0.115489 +0.028201 0
-0.090491 +0.030771 0
-0.134157 +0.024922 0
+0.001791 -0.010272 0
+0.000122 -0.000699 0
+0.002918 -0.016740 0
+0.000000 +0.000000 0
+0.000000 +0.000000 0
+0.000000 +0.000000 0
-0.125680 +0.023166 0
-0.071729 +0.013715 0
-0.147061 +0.024804 0
-0.138461 +0.072377 0
-0.141115 +0.074290 0
-0.133259 +0.069244 0
-0.136054 +0.064732 0
-0.131779 +0.065350 0
-0.138373 +0.063130 0
-0.153747 +0.067382 0
-0.147462 +0.064527 0
-0.157358 +0.069075 0
-0.153883 +0.074404 0
-0.157148 +0.072505 0
-0.148512 +0.075221 0
-0.107830 +0.065235 0
-0.114067 +0.069264 0
-0.102856 +0.059880 0
-0.097993 +0.046268 0
-0.096530 +0.049252 0
-0.105552 +0.046104 0
-0.143038 +0.053545 0
-0.130929 +0.050314 0
-0.150914 +0.057561 0
-0.139124 +0.068738 0
-0.147824 +0.065602 0
-0.130000 +0.070887 0
-0.132418 +0.073637 0
-0.137130 +0.074457 0
-0.127122 +0.072501 0
-0.112706 +0.060003 0
-0.119382 +0.062630 0
-0.105540 +0.057112 0
-0.129082 +0.054408 0
-0.134206 +0.057598 0
-0.123388 +0.050975 0
-0.156449 +0.066181 0
-0.157666 +0.068036 0
-0.154553 +0.064034 0
-0.062559 +0.061033 0
-0.089983 +0.064752 0
-0.036059 +0.057700 0
-0.034975 +0.024081 0
-0.062427 +0.037830 0
-0.014702 +0.011662 0
-0.054832 +0.016555 0
-0.083958 +0.030041 0
-0.027197 +0.006757 0
-0.141512 +0.039135 0
-0.143242 +0.049246 0
-0.143069 +0.029808 0
+0.142941 +0.013002 0
+0.082741 +0.024562 0
+0.158750 -0.002596 0
+0.125680 -0.023166 0
+0.147061 -0.024804 0
+0.071729 -0.013715 0
+0.000000 +0.000000 0
+0.000000 +0.000000 0
+0.000000 +0.000000 0
+0.118222 +0.016613 0
+0.111939 +0.015750 0
+0.122739 +0.017239 0
+0.144045 +0.013103 0
+0.135831 +0.015495 0
+0.149839 +0.010490 0
+0.144365 +0.007272 0
+0.149843 +0.007555 0
+0.136781 +0.006874 0
+0.119823 +0.010899 0
+0.124643 +0.008705 0
+0.112897 +0.012902 0
+0.077614 +0.020854 0
+0.073813 +0.018108 0
+0.089080 +0.021681 0
+0.140775 +0.012805 0
+0.124470 +0.017283 0
+0.151067 +0.007780 0
+0.139160 -0.001136 0
+0.149663 +0.000035 0
+0.124649 -0.000055 0
+0.083755 +0.007619 0
+0.094586 +0.004823 0
+0.077718 +0.010850 0
+0.089343 +0.014796 0
+0.096792 +0.014789 0
+0.081465 +0.014743 0
+0.116604 +0.019177 0
+0.121302 +0.018437 0
+0.111389 +0.019845 0
+0.154844 +0.005514 0
+0.154334 +0.006635 0
+0.154723 +0.004362 0
+0.119099 +0.004164 0
+0.123495 +0.005249 0
+0.114180 +0.003054 0
+0.011339 +0.010319 0
+0.036972 +0.012833 0
-0.000619 +0.006061 0
+0.047367 +0.028274 0
+0.074845 +0.024159 0
+0.020913 +0.031496 0
+0.154295 -0.009931 0
+0.152259 -0.003501 0
+0.152951 -0.015681 0
+0.052775 -0.004487 0
+0.079224 -0.002263 0
+0.026674 -0.003691 0
+0.086449 +0.007864 0
+0.096058 -0.001492 0
+0.050415 +0.014816 0
+0.106813 -0.003576 0
+0.056388 +0.008322 0
+0.134851 -0.013435 0
+0.205095 +0.020919 0
+0.205025 +0.021305 0
+0.202137 +0.020228 0
+0.206415 +0.018776 0
+0.203053 +0.019178 0
+0.206212 +0.018050 0
+0.215190 +0.017312 0
+0.210351 +0.017293 0
+0.216872 +0.017072 0
+0.215967 +0.019645 0
+0.217517 +0.018264 0
+0.210726 +0.020690 0
+0.161545 +0.020016 0
+0.164207 +0.021512 0
+0.164093 +0.017993 0
+0.168522 +0.015329 0
+0.168781 +0.015487 0
+0.169382 +0.015273 0
+0.185287 +0.011533 0
+0.177774 +0.013104 0
+0.193544 +0.011030 0
+0.191006 +0.017374 0
+0.197547 +0.014333 0
+0.181322 +0.020130 0
+0.188270 +0.021597 0
+0.195595 +0.021517 0
+0.180114 +0.021589 0
+0.182660 +0.018033 0
+0.189765 +0.018709 0
+0.174747 +0.017277 0
+0.188985 +0.015773 0
+0.196221 +0.016402 0
+0.180913 +0.015074 0
+0.208221 +0.014469 0
+0.212217 +0.015578 0
+0.203337 +0.013291 0
+0.079246 +0.025453 0
+0.122616 +0.022675 0
+0.037051 +0.029193 0
+0.104722 +0.004198 0
+0.128984 +0.010598 0
+0.092118 -0.003544 0
+0.080951 +0.012691 0
+0.123922 +0.012407 0
+0.038921 +0.015463 0
+0.160647 -0.003632 0
+0.174023 +0.004308 0
+0.152264 -0.011972 0
-0.086449 -0.007864 0
-0.050415 -0.014816 0
-0.096058 +0.001492 0
-0.093653 +0.033462 0
-0.100406 +0.026432 0
-0.058274 +0.030264 0
-0.142941 -0.013002 0