# vtk DataFile Version 2.0
MyTitle
ASCII
DATASET UNSTRUCTURED_GRID
POINTS 2645 double
0.000000 0.000000 0.000000
1.000000 0.000000 0.000000
1.000000 1.000000 0.000000
0.000000 1.000000 0.000000
0.420000 0.420000 0.000000
0.580000 0.420000 0.000000
0.580000 0.580000 0.000000
0.420000 0.580000 0.000000
0.358579 0.358579 0.000000
0.641421 0.358579 0.000000
0.641421 0.641421 0.000000
0.358579 0.641421 0.000000
2.000000 0.000000 0.000000
2.000000 1.000000 0.000000
1.420000 0.420000 0.000000
1.580000 0.420000 0.000000
1.580000 0.580000 0.000000
1.420000 0.580000 0.000000
1.358579 0.358579 0.000000
1.641421 0.358579 0.000000
1.641421 0.641421 0.000000
1.358579 0.641421 0.000000
3.000000 0.000000 0.000000
3.000000 1.000000 0.000000
2.420000 0.420000 0.000000
2.580000 0.420000 0.000000
2.580000 0.580000 0.000000
2.420000 0.580000 0.000000
2.358579 0.358579 0.000000
2.641421 0.358579 0.000000
2.641421 0.641421 0.000000
2.358579 0.641421 0.000000
4.000000 0.000000 0.000000
4.000000 1.000000 0.000000
3.420000 0.420000 0.000000
3.580000 0.420000 0.000000
3.580000 0.580000 0.000000
3.420000 0.580000 0.000000
3.358579 0.358579 0.000000
3.641421 0.358579 0.000000
3.641421 0.641421 0.000000
3.358579 0.641421 0.000000
5.000000 0.000000 0.000000
5.000000 1.000000 0.000000
4.420000 0.420000 0.000000
4.580000 0.420000 0.000000
4.580000 0.580000 0.000000
4.420000 0.580000 0.000000
4.358579 0.358579 0.000000
4.641421 0.358579 0.000000
4.641421 0.641421 0.000000
4.358579 0.641421 0.000000
1.000000 2.000000 0.000000
0.000000 2.000000 0.000000
0.420000 1.420000 0.000000
0.580000 1.420000 0.000000
0.580000 1.580000 0.000000
0.420000 1.580000 0.000000
0.358579 1.358579 0.000000
0.641421 1.358579 0.000000
0.641421 1.641421 0.000000
0.358579 1.641421 0.000000
2.000000 2.000000 0.000000
1.420000 1.420000 0.000000
1.580000 1.420000 0.000000
1.580000 1.580000 0.000000
1.420000 1.580000 0.000000
1.358579 1.358579 0.000000
1.641421 1.358579 0.000000
1.641421 1.641421 0.000000
1.358579 1.641421 0.000000
3.000000 2.000000 0.000000
2.420000 1.420000 0.000000
2.580000 1.420000 0.000000
2.580000 1.580000 0.000000
2.420000 1.580000 0.000000
2.358579 1.358579 0.000000
2.641421 1.358579 0.000000
2.641421 1.641421 0.000000
2.358579 1.641421 0.000000
4.000000 2.000000 0.000000
3.420000 1.420000 0.000000
3.580000 1.420000 0.000000
3.580000 1.580000 0.000000
3.420000 1.580000 0.000000
3.358579 1.358579 0.000000
3.641421 1.358579 0.000000
3.641421 1.641421 0.000000
3.358579 1.641421 0.000000
5.000000 2.000000 0.000000
4.420000 1.420000 0.000000
4.580000 1.420000 0.000000
4.580000 1.580000 0.000000
4.420000 1.580000 0.000000
4.358579 1.358579 0.000000
4.641421 1.358579 0.000000
4.641421 1.641421 0.000000
4.358579 1.641421 0.000000
1.000000 3.000000 0.000000
0.000000 3.000000 0.000000
0.420000 2.420000 0.000000
0.580000 2.420000 0.000000
0.580000 2.580000 0.000000
0.420000 2.580000 0.000000
0.358579 2.358579 0.000000
0.641421 2.358579 0.000000
0.641421 2.641421 0.000000
0.358579 2.641421 0.000000
2.000000 3.000000 0.000000
1.420000 2.420000 0.000000
1.580000 2.420000 0.000000
1.580000 2.580000 0.000000
1.420000 2.580000 0.000000
1.358579 2.358579 0.000000
1.641421 2.358579 0.000000
1.641421 2.641421 0.000000
1.358579 2.641421 0.000000
3.000000 3.000000 0.000000
4.000000 3.000000 0.000000
3.420000 2.420000 0.000000
3.580000 2.420000 0.000000
3.580000 2.580000 0.000000
3.420000 2.580000 0.000000
3.358579 2.358579 0.000000
3.641421 2.358579 0.000000
3.641421 2.641421 0.000000
3.358579 2.641421 0.000000
5.000000 3.000000 0.000000
4.420000 2.420000 0.000000
4.580000 2.420000 0.000000
4.580000 2.580000 0.000000
4.420000 2.580000 0.000000
4.358579 2.358579 0.000000
4.641421 2.358579 0.000000
4.641421 2.641421 0.000000
4.358579 2.641421 0.000000
1.000000 4.000000 0.000000
0.000000 4.000000 0.000000
0.420000 3.420000 0.000000
0.580000 3.420000 0.000000
0.580000 3.580000 0.000000
0.420000 3.580000 0.000000
0.358579 3.358579 0.000000
0.641421 3.358579 0.000000
0.641421 3.641421 0.000000
0.358579 3.641421 0.000000
2.000000 4.000000 0.000000
1.420000 3.420000 0.000000
1.580000 3.420000 0.000000
1.580000 3.580000 0.000000
1.420000 3.580000 0.000000
1.358579 3.358579 0.000000
1.641421 3.358579 0.000000
1.641421 3.641421 0.000000
1.358579 3.641421 0.000000
3.000000 4.000000 0.000000
2.420000 3.420000 0.000000
2.580000 3.420000 0.000000
2.580000 3.580000 0.000000
2.420000 3.580000 0.000000
2.358579 3.358579 0.000000
2.641421 3.358579 0.000000
2.641421 3.641421 0.000000
2.358579 3.641421 0.000000
4.000000 4.000000 0.000000
3.420000 3.420000 0.000000
3.580000 3.420000 0.000000
3.580000 3.580000 0.000000
3.420000 3.580000 0.000000
3.358579 3.358579 0.000000
3.641421 3.358579 0.000000
3.641421 3.641421 0.000000
3.358579 3.641421 0.000000
5.000000 4.000000 0.000000
4.420000 3.420000 0.000000
4.580000 3.420000 0.000000
4.580000 3.580000 0.000000
4.420000 3.580000 0.000000
4.358579 3.358579 0.000000
4.641421 3.358579 0.000000
4.641421 3.641421 0.000000
4.358579 3.641421 0.000000
1.000000 5.000000 0.000000
0.000000 5.000000 0.000000
0.420000 4.420000 0.000000
0.580000 4.420000 0.000000
0.580000 4.580000 0.000000
0.420000 4.580000 0.000000
0.358579 4.358579 0.000000
0.641421 4.358579 0.000000
0.641421 4.641421 0.000000
0.358579 4.641421 0.000000
2.000000 5.000000 0.000000
1.420000 4.420000 0.000000
1.580000 4.420000 0.000000
1.580000 4.580000 0.000000
1.420000 4.580000 0.000000
1.358579 4.358579 0.000000
1.641421 4.358579 0.000000
1.641421 4.641421 0.000000
1.358579 4.641421 0.000000
3.000000 5.000000 0.000000
2.420000 4.420000 0.000000
2.580000 4.420000 0.000000
2.580000 4.580000 0.000000
2.420000 4.580000 0.000000
2.358579 4.358579 0.000000
2.641421 4.358579 0.000000
2.641421 4.641421 0.000000
2.358579 4.641421 0.000000
4.000000 5.000000 0.000000
3.420000 4.420000 0.000000
3.580000 4.420000 0.000000
3.580000 4.580000 0.000000
3.420000 4.580000 0.000000
3.358579 4.358579 0.000000
3.641421 4.358579 0.000000
3.641421 4.641421 0.000000
3.358579 4.641421 0.000000
5.000000 5.000000 0.000000
4.420000 4.420000 0.000000
4.580000 4.420000 0.000000
4.580000 4.580000 0.000000
4.420000 4.580000 0.000000
4.358579 4.358579 0.000000
4.641421 4.358579 0.000000
4.641421 4.641421 0.000000
4.358579 4.641421 0.000000
0.500000 0.000000 0.000000
0.250000 0.000000 0.000000
0.750000 0.000000 0.000000
1.000000 0.500000 0.000000
1.000000 0.250000 0.000000
1.000000 0.750000 0.000000
0.500000 1.000000 0.000000
0.750000 1.000000 0.000000
0.250000 1.000000 0.000000
0.000000 0.500000 0.000000
0.000000 0.750000 0.000000
0.000000 0.250000 0.000000
0.500000 0.420000 0.000000
0.460000 0.420000 0.000000
0.540000 0.420000 0.000000
0.580000 0.500000 0.000000
0.580000 0.460000 0.000000
0.580000 0.540000 0.000000
0.500000 0.580000 0.000000
0.540000 0.580000 0.000000
0.460000 0.580000 0.000000
0.420000 0.500000 0.000000
0.420000 0.540000 0.000000
0.420000 0.460000 0.000000
0.500000 0.300001 0.000000
0.423464 0.315225 0.000000
0.576536 0.315225 0.000000
0.699999 0.500000 0.000000
0.684775 0.423464 0.000000
0.684775 0.576536 0.000000
0.500000 0.699999 0.000000
0.576536 0.684775 0.000000
0.423464 0.684775 0.000000
0.300001 0.500000 0.000000
0.315225 0.576536 0.000000
0.315225 0.423464 0.000000
0.389290 0.389290 0.000000
0.404645 0.404645 0.000000
0.373934 0.373934 0.000000
0.610710 0.389290 0.000000
0.595355 0.404645 0.000000
0.626066 0.373934 0.000000
0.610710 0.610710 0.000000
0.595355 0.595355 0.000000
0.626066 0.626066 0.000000
0.389290 0.610710 0.000000
0.404645 0.595355 0.000000
0.373934 0.626066 0.000000
0.179290 0.179290 0.000000
0.268934 0.268934 0.000000
0.089645 0.089645 0.000000
0.820710 0.179290 0.000000
0.731066 0.268934 0.000000
0.910355 0.089645 0.000000
0.820710 0.820710 0.000000
0.731066 0.731066 0.000000
0.910355 0.910355 0.000000
0.179290 0.820710 0.000000
0.268934 0.731066 0.000000
0.089645 0.910355 0.000000
1.500000 0.000000 0.000000
1.250000 0.000000 0.000000
1.750000 0.000000 0.000000
2.000000 0.500000 0.000000
2.000000 0.250000 0.000000
2.000000 0.750000 0.000000
1.500000 1.000000 0.000000
1.750000 1.000000 0.000000
1.250000 1.000000 0.000000
1.500000 0.420000 0.000000
1.460000 0.420000 0.000000
1.540000 0.420000 0.000000
1.580000 0.500000 0.000000
1.580000 0.460000 0.000000
1.580000 0.540000 0.000000
1.500000 0.580000 0.000000
1.540000 0.580000 0.000000
1.460000 0.580000 0.000000
1.420000 0.500000 0.000000
1.420000 0.540000 0.000000
1.420000 0.460000 0.000000
1.500000 0.300001 0.000000
1.423464 0.315225 0.000000
1.576536 0.315225 0.000000
1.699999 0.500000 0.000000
1.684775 0.423464 0.000000
1.684775 0.576536 0.000000
1.500000 0.699999 0.000000
1.576536 0.684775 0.000000
1.423464 0.684775 0.000000
1.300001 0.500000 0.000000
1.315225 0.576536 0.000000
1.315225 0.423464 0.000000
1.389290 0.389290 0.000000
1.404645 0.404645 0.000000
1.373934 0.373934 0.000000
1.610710 0.389290 0.000000
1.595355 0.404645 0.000000
1.626066 0.373934 0.000000
1.610710 0.610710 0.000000
1.595355 0.595355 0.000000
1.626066 0.626066 0.000000
1.389290 0.610710 0.000000
1.404645 0.595355 0.000000
1.373934 0.626066 0.000000
1.179290 0.179290 0.000000
1.268934 0.268934 0.000000
1.089645 0.089645 0.000000
1.820710 0.179290 0.000000
1.731066 0.268934 0.000000
1.910355 0.089645 0.000000
1.820710 0.820710 0.000000
1.731066 0.731066 0.000000
1.910355 0.910355 0.000000
1.179290 0.820710 0.000000
1.268934 0.731066 0.000000
1.089645 0.910355 0.000000
2.500000 0.000000 0.000000
2.250000 0.000000 0.000000
2.750000 0.000000 0.000000
3.000000 0.500000 0.000000
3.000000 0.250000 0.000000
3.000000 0.750000 0.000000
2.500000 1.000000 0.000000
2.750000 1.000000 0.000000
2.250000 1.000000 0.000000
2.500000 0.420000 0.000000
2.460000 0.420000 0.000000
2.540000 0.420000 0.000000
2.580000 0.500000 0.000000
2.580000 0.460000 0.000000
2.580000 0.540000 0.000000
2.500000 0.580000 0.000000
2.540000 0.580000 0.000000
2.460000 0.580000 0.000000
2.420000 0.500000 0.000000
2.420000 0.540000 0.000000
2.420000 0.460000 0.000000
2.500000 0.300001 0.000000
[...]
POINT_DATA 2645
VECTORS sol double
+0.000000 +0.000000 0
+0.000000 +0.000000 0
+0.172815 -0.020293 0
+0.000000 +0.000000 0
+0.050720 -0.005956 0
+0.065778 -0.008173 0
+0.084883 -0.009968 0
+0.065142 -0.007201 0
+0.037070 -0.004353 0
+0.059784 -0.007755 0
+0.095549 -0.011220 0
+0.058741 -0.006164 0
+0.000000 +0.000000 0
+0.220083 -0.063857 0
+0.130370 -0.026916 0
+0.134951 -0.030749 0
+0.173240 -0.038569 0
+0.167378 -0.033555 0
+0.106993 -0.021454 0
+0.113963 -0.027241 0
+0.180423 -0.041473 0
+0.169598 -0.032132 0
+0.000000 +0.000000 0
+0.146693 -0.102245 0
+0.127280 -0.054798 0
+0.121452 -0.057846 0
+0.154540 -0.073801 0
+0.162357 -0.069713 0
+0.108356 -0.044818 0
+0.099638 -0.049377 0
+0.155147 -0.077437 0
+0.169850 -0.069746 0
+0.000000 +0.000000 0
+0.054018 -0.082433 0
+0.072722 -0.063300 0
+0.064536 -0.061352 0
+0.080802 -0.078840 0
+0.091500 -0.081325 0
+0.064022 -0.053364 0
+0.051661 -0.050396 0
+0.078047 -0.080020 0
+0.097967 -0.084603 0
+0.000000 +0.000000 0
+0.000000 +0.000000 0
+0.021480 -0.031344 0
+0.015854 -0.024194 0
+0.019443 -0.031105 0
+0.026532 -0.040489 0
+0.020192 -0.028464 0
+0.011587 -0.017683 0
+0.016856 -0.028072 0
+0.029866 -0.045577 0
+0.166110 +0.018507 0
+0.000000 +0.000000 0
+0.113891 -0.001767 0
+0.147643 -0.003438 0
+0.147363 +0.000921 0
+0.113793 +0.001540 0
+0.094371 -0.002192 0
+0.152253 -0.005662 0
+0.151621 +0.002481 0
+0.094286 +0.002787 0
+0.172174 -0.020218 0
+0.280702 -0.032962 0
+0.287563 -0.041279 0
+0.282644 -0.033190 0
+0.276898 -0.025005 0
+0.263258 -0.030914 0
+0.275650 -0.045227 0
+0.266429 -0.031286 0
+0.257395 -0.017368 0
+0.053817 -0.082127 0
+0.243623 -0.101925 0
+0.226399 -0.110935 0
+0.212672 -0.105312 0
+0.231112 -0.095666 0
+0.240915 -0.095063 0
+0.212140 -0.110114 0
+0.187792 -0.100875 0
+0.220231 -0.083908 0
-0.025979 -0.081969 0
+0.105277 -0.136628 0
+0.087740 -0.133895 0
+0.071159 -0.132621 0
+0.088347 -0.134821 0
+0.112510 -0.130561 0
+0.082288 -0.125574 0
+0.054106 -0.123702 0
+0.083279 -0.127087 0
+0.000000 +0.000000 0
+0.017665 -0.071426 0
+0.011814 -0.055161 0
+0.005030 -0.055351 0
+0.008713 -0.071603 0
+0.022555 -0.073503 0
+0.011281 -0.045655 0
+0.001071 -0.045971 0
+0.005821 -0.073782 0
+0.025979 +0.081969 0
+0.000000 +0.000000 0
+0.070697 +0.031550 0
+0.090446 +0.040026 0
+0.075520 +0.046786 0
+0.059569 +0.036589 0
+0.062788 +0.024720 0
+0.099141 +0.038159 0
+0.071067 +0.050873 0
+0.046143 +0.032259 0
-0.053817 +0.082127 0
+0.139524 +0.056933 0
+0.133815 +0.052813 0
+0.098604 +0.068759 0
+0.106637 +0.071827 0
+0.146109 +0.049615 0
+0.137814 +0.041863 0
+0.075876 +0.069913 0
+0.091166 +0.074497 0
-0.172174 +0.020218 0
-0.166110 -0.018507 0
-0.098604 -0.068759 0
-0.106637 -0.071827 0
-0.139524 -0.056933 0
-0.133815 -0.052813 0
-0.075876 -0.069913 0
-0.091166 -0.074497 0
-0.146109 -0.049615 0
-0.137814 -0.041863 0
+0.000000 +0.000000 0
-0.075520 -0.046786 0
-0.059569 -0.036589 0
-0.070697 -0.031550 0
-0.090446 -0.040026 0
-0.071067 -0.050873 0
-0.046143 -0.032259 0
-0.062788 -0.024720 0
-0.099141 -0.038159 0
-0.054018 +0.082433 0
+0.000000 +0.000000 0
-0.005030 +0.055351 0
-0.008713 +0.071603 0
-0.017665 +0.071426 0
-0.011814 +0.055161 0
-0.001071 +0.045971 0
-0.005821 +0.073782 0
-0.022555 +0.073503 0
-0.011281 +0.045655 0
-0.146693 +0.102245 0
-0.071159 +0.132621 0
-0.088347 +0.134821 0
-0.105277 +0.136628 0
-0.087740 +0.133895 0
-0.054106 +0.123702 0
-0.083279 +0.127087 0
-0.112510 +0.130561 0
-0.082288 +0.125574 0
-0.220083 +0.063857 0
-0.212672 +0.105312 0
-0.231112 +0.095666 0
-0.243623 +0.101925 0
-0.226399 +0.110935 0
-0.187792 +0.100875 0
-0.220231 +0.083908 0
-0.240915 +0.095063 0
-0.212140 +0.110114 0
-0.172815 +0.020293 0
-0.282644 +0.033190 0
-0.276898 +0.025005 0
-0.280702 +0.032962 0
-0.287563 +0.041279 0
-0.266429 +0.031286 0
-0.257395 +0.017368 0
-0.263258 +0.030914 0
-0.275650 +0.045227 0
+0.000000 +0.000000 0
-0.147363 -0.000921 0
-0.113793 -0.001540 0
-0.113891 +0.001767 0
-0.147643 +0.003438 0
-0.151621 -0.002481 0
-0.094286 -0.002787 0
-0.094371 +0.002192 0
-0.152253 +0.005662 0
+0.000000 +0.000000 0
+0.000000 +0.000000 0
-0.019443 +0.031105 0
-0.026532 +0.040489 0
-0.021480 +0.031344 0
-0.015854 +0.024194 0
-0.016856 +0.028072 0
-0.029866 +0.045577 0
-0.020192 +0.028464 0
-0.011587 +0.017683 0
+0.000000 +0.000000 0
-0.080802 +0.078840 0
-0.091500 +0.081325 0
-0.072722 +0.063300 0
-0.064536 +0.061352 0
-0.078047 +0.080020 0
-0.097967 +0.084603 0
-0.064022 +0.053364 0
-0.051661 +0.050396 0
+0.000000 +0.000000 0
-0.154540 +0.073801 0
-0.162357 +0.069713 0
-0.127280 +0.054798 0
-0.121452 +0.057846 0
-0.155147 +0.077437 0
-0.169850 +0.069746 0
-0.108356 +0.044818 0
-0.099638 +0.049377 0
+0.000000 +0.000000 0
-0.173240 +0.038569 0
-0.167378 +0.033555 0
-0.130370 +0.026916 0
-0.134951 +0.030749 0
-0.180423 +0.041473 0
-0.169598 +0.032132 0
-0.106993 +0.021454 0
-0.113963 +0.027241 0
+0.000000 +0.000000 0
-0.084883 +0.009968 0
-0.065142 +0.007201 0
-0.050720 +0.005956 0
-0.065778 +0.008173 0
-0.095549 +0.011220 0
-0.058741 +0.006164 0
-0.037070 +0.004353 0
-0.059784 +0.007755 0
+0.000000 +0.000000 0
+0.000000 +0.000000 0
+0.000000 +0.000000 0
+0.105514 -0.016335 0
+0.055784 -0.009077 0
+0.143751 -0.020076 0
+0.099913 -0.007788 0
+0.139214 -0.013152 0
+0.052196 -0.003603 0
+0.000000 +0.000000 0
+0.000000 +0.000000 0
+0.000000 +0.000000 0
+0.059045 -0.007114 0
+0.055060 -0.006546 0
+0.062628 -0.007658 0
+0.076358 -0.009252 0
+0.071300 -0.008754 0
+0.080895 -0.009657 0
+0.075954 -0.008634 0
+0.080671 -0.009315 0
+0.070759 -0.007928 0
+0.058788 -0.006722 0
+0.062196 -0.007000 0
+0.054947 -0.006372 0
+0.042072 -0.005219 0
+0.038480 -0.004643 0
+0.049204 -0.006258 0
+0.084400 -0.010840 0
+0.072292 -0.009413 0
+0.092944 -0.011486 0
+0.083081 -0.008827 0
+0.092132 -0.010247 0
+0.070980 -0.007411 0
+0.041676 -0.004615 0
+0.048523 -0.005218 0
+0.038302 -0.004373 0
+0.043906 -0.005156 0
+0.047295 -0.005554 0
+0.040421 -0.004747 0
+0.063155 -0.008014 0
+0.064573 -0.008108 0
+0.061622 -0.007908 0
+0.090502 -0.010628 0
+0.087739 -0.010303 0
+0.093100 -0.010933 0
+0.062306 -0.006719 0
+0.063827 -0.006970 0
+0.060668 -0.006452 0
+0.009142 -0.001074 0
+0.020997 -0.002466 0
+0.002299 -0.000270 0
+0.034990 -0.005169 0
+0.048167 -0.006653 0
+0.018956 -0.002969 0
+0.131803 -0.015477 0
+0.112416 -0.013201 0
+0.152152 -0.017867 0
+0.033484 -0.002872 0
+0.046752 -0.004493 0
+0.017900 -0.001359 0
+0.000000 +0.000000 0
+0.000000 +0.000000 0
+0.000000 +0.000000 0
+0.138443 -0.043265 0
+0.073648 -0.023352 0
+0.186367 -0.056582 0
+0.223080 -0.040438 0
+0.226186 -0.051585 0
+0.203078 -0.029705 0
+0.134425 -0.029130 0
+0.132829 -0.028092 0
+0.135130 -0.030018 0
+0.156324 -0.035248 0
+0.146141 -0.033133 0
+0.165378 -0.037064 0
+0.172386 -0.036393 0
+0.173330 -0.037568 0
+0.170388 -0.035051 0
+0.151038 -0.030780 0
+0.159788 -0.032312 0
+0.141192 -0.028972 0
+0.095938 -0.021069 0
+0.098337 -0.020613 0
+0.101637 -0.023346 0
+0.150118 -0.036810 0
+0.131320 -0.032089 0
+0.167476 -0.040183 0
+0.187925 -0.038522 0
+0.187720 -0.040838 0
+0.181571 -0.035476 0
+0.137186 -0.025939 0
+0.154242 -0.028897 0
+0.120941 -0.023432 0
+0.119069 -0.024239 0
+0.124804 -0.025586 0
+0.113098 -0.022845 0
+0.124951 -0.029142 0
+0.130072 -0.029986 0
+0.119590 -0.028246 0
+0.177560 -0.040163 0
+0.175563 -0.039393 0
+0.179230 -0.040856 0
+0.169232 -0.033005 0
+0.168481 -0.033321 0
+0.169667 -0.032624 0
+0.046633 -0.008547 0
+0.074907 -0.014412 0
+0.021883 -0.003819 0
+0.054796 -0.015152 0
+0.083366 -0.021345 0
+0.027205 -0.008080 0
+0.201335 -0.051577 0
+0.189915 -0.046035 0
+0.211666 -0.057582 0
+0.173351 -0.026703 0
+0.170927 -0.029399 0
+0.174180 -0.023677 0
+0.000000 +0.000000 0
+0.000000 +0.000000 0
+0.000000 +0.000000 0
+0.098620 -0.064095 0
+0.053152 -0.034073 0
+0.129359 -0.086402 0
+0.198898 -0.090076 0
+0.174682 -0.097553 0
+0.212480 -0.077782 0
+0.125910 -0.057021 0
+0.126986 -0.056078 0
+0.124055 -0.057611 0
+0.140144 -0.066821 0
+0.131284 -0.062559 0
+0.147915 -0.070577 0
+0.160243 -0.072570 0
+0.157825 -0.073391 0
+0.161751 -0.071337 0
+0.147016 -0.063226 0
+0.155273 -0.066729 0
+0.137646 -0.059232 0
+0.090216 -0.040856 0
+0.096103 -0.041519 0
+0.091998 -0.043667 0
+0.126556 -0.065422 0
+0.112131 -0.057178 0
+0.141499 -0.072637 0
+0.173223 -0.078448 0
+0.166322 -0.079489 0
+0.174859 -0.075023 0
+0.143173 -0.056731 0
+0.159033 -0.063465 0
+0.125240 -0.050321 0
+0.118310 -0.049959 0
+0.122918 -0.052410 0
+0.113476 -0.047411 0
+0.110891 -0.053840 0
+0.116245 -0.055901 0
+0.105322 -0.051676 0
+0.155544 -0.075916 0
+0.155211 -0.074922 0
+0.155586 -0.076767 0
+0.166762 -0.070048 0
+0.164701 -0.069958 0
+0.168510 -0.070007 0
+0.053413 -0.019487 0
+0.080190 -0.031300 0
+0.026858 -0.009170 0
+0.043776 -0.024527 0
+0.069912 -0.036677 0
+0.020723 -0.012378 0
+0.153420 -0.089200 0
+0.153926 -0.082701 0
+0.151176 -0.095826 0
+0.193833 -0.068061 0
+0.180551 -0.068774 0
+0.207249 -0.066496 0
+0.000000 +0.000000 0
+0.000000 +0.000000 0
+0.000000 +0.000000 0
+0.041065 -0.050046 0
+0.022614 -0.026427 0
+0.051482 -0.068340 0
+0.098916 -0.105385 0
+0.075482 -0.096447 0
+0.121982 -0.106091 0
+0.069365 -0.063161 0
+0.071235 -0.063439 0
+0.067122 -0.062461 0
+0.073942 -0.071107 0
+0.069529 -0.066457 0
+0.077710 -0.075245 0
+0.086980 -0.081067 0
+0.084085 -0.080194 0
+0.089456 -0.081440 0
+0.083479 -0.073352 0
+0.087851 -0.077616 0
+0.078412 -0.068560 0
+0.050077 -0.045058 0
+0.055154 -0.047660 0
+0.049315 -0.046255 0
+0.063024 -0.064731 0
+0.056719 -0.057025 0
+0.070313 -0.072798 0
+0.092461 -0.088457 0
+0.085762 -0.085591 0
+0.097192 -0.088191 0
+0.086233 -0.070227 0
+0.094394 -0.078411 0
+0.075205 -0.061441 0
+0.068708 -0.058561 0
+0.070805 -0.060986 0
+0.066487 -0.056023 0
+0.058238 -0.056058 0
+0.061410 -0.058745 0
+0.054952 -0.053260 0
+0.079809 -0.079779 0
+0.080402 -0.079392 0
+0.079060 -0.080018 0
+0.095077 -0.083307 0
+0.093355 -0.082393 0
+0.096618 -0.084068 0
+0.034993 -0.025511 0
+0.049739 -0.038935 0
+0.018515 -0.012626 0
+0.020870 -0.022023 0
+0.034922 -0.035327 0
+0.009399 -0.010348 0
+0.067192 -0.082232 0
+0.072541 -0.080861 0
+0.061050 -0.082852 0
+0.120178 -0.094028 0
+0.108000 -0.088882 0
+0.133228 -0.098611 0
+0.000000 +0.000000 0
+0.000000 +0.000000 0
+0.000000 +0.000000 0
+0.000000 +0.000000 0
+0.000000 +0.000000 0
+0.000000 +0.000000 0
+0.023147 -0.047942 0
+0.011137 -0.025079 0
+0.036966 -0.066635 0
+0.018827 -0.028151 0
+0.020198 -0.029852 0
+0.017374 -0.026258 0
+0.018005 -0.028055 0
+0.017011 -0.026215 0
+0.018819 -0.029690 0
+0.023157 -0.036250 0
+0.021336 -0.033779 0
+0.024893 -0.038491 0
+0.024452 -0.036402 0
+0.025609 -0.038575 0
+0.023068 -0.033983 0
+0.013722 -0.020048 0
+0.016364 -0.023436 0
+0.012284 -0.018346 0
+0.012455 -0.019899 0
+0.011717 -0.018279 0
+0.014183 -0.023180 0
+0.024065 -0.039697 0
+0.020293 -0.033924 0
+0.027627 -0.043988 0
+0.028285 -0.040192 0
+0.030223 -0.044293 0
+0.024491 -0.034417 0
+0.020966 -0.030082 0
+0.021261 -0.030764 0
+0.020638 -0.029345 0
+0.013724 -0.020943 0
+0.014783 -0.022560 0
+0.012635 -0.019281 0
+0.018250 -0.029763 0
+0.018874 -0.030483 0
+0.017586 -0.028987 0
+0.028289 -0.043170 0
+0.027425 -0.041852 0
+0.029101 -0.044409 0
+0.013109 -0.016614 0
+0.017098 -0.022904 0
+0.007448 -0.008988 0
+0.002858 -0.004361 0
+0.006563 -0.010015 0
+0.000718 -0.001096 0
+0.008294 -0.016048 0
+0.012571 -0.022373 0
+0.004072 -0.008592 0
+0.041198 -0.062870 0
+0.035139 -0.053623 0
+0.047559 -0.072576 0
+0.202859 -0.009579 0
+0.194761 -0.017013 0
+0.190657 +0.002635 0
+0.100096 +0.015253 0
+0.137103 +0.018597 0
+0.052771 +0.008506 0
+0.000000 +0.000000 0
+0.000000 +0.000000 0
+0.000000 +0.000000 0
+0.132517 -0.002517 0
+0.123597 -0.002122 0
+0.140552 -0.002956 0
+0.149456 -0.001400 0
+0.149031 -0.002458 0
+0.148889 -0.000270 0
+0.132341 +0.001351 0
+0.140326 +0.001166 0
+0.123463 +0.001474 0
+0.115478 -0.000216 0
+0.115039 +0.000641 0
+0.115090 -0.001021 0
+0.123230 -0.004642 0
+0.107835 -0.003433 0
+0.138929 -0.005530 0
+0.164562 -0.002870 0
+0.161473 -0.004807 0
+0.161035 -0.000116 0
+0.122882 +0.004752 0
+0.138346 +0.004271 0
+0.107654 +0.004026 0
+0.082019 +0.000172 0
+0.085434 +0.001379 0
+0.085465 -0.000971 0
+0.104506 -0.002015 0
+0.109285 -0.001903 0
+0.099518 -0.002122 0
+0.150586 -0.004551 0
+0.149262 -0.003991 0
+0.151634 -0.005106 0
+0.150141 +0.001681 0
+0.148904 +0.001291 0
+0.151104 +0.002065 0
+0.104407 +0.002209 0
+0.109184 +0.001890 0
+0.099424 +0.002528 0
+0.042272 -0.001892 0
+0.066933 -0.002244 0
+0.020109 -0.001113 0
+0.164339 -0.012951 0
+0.157684 -0.009190 0
+0.169604 -0.016693 0
+0.161673 +0.008949 0
+0.156217 +0.005389 0
+0.165200 +0.013327 0
+0.042418 +0.003736 0
+0.066959 +0.003692 0
+0.020269 +0.002505 0
+0.243623 -0.059521 0
+0.241980 -0.065616 0
+0.216915 -0.043334 0
+0.199731 +0.007459 0
+0.191555 -0.004632 0
+0.189161 +0.014987 0
+0.287812 -0.037368 0
+0.285160 -0.035217 0
+0.288602 -0.039394 0
+0.289135 -0.037963 0
+0.289350 -0.039810 0
+0.286877 -0.035746 0
+0.283441 -0.029274 0
+0.283954 -0.031286 0
+0.281070 -0.027174 0
+0.282743 -0.029632 0
+0.280787 -0.027469 0
+0.282702 -0.031467 0
+0.270016 -0.039538 0
+0.266729 -0.035387 0
+0.273627 -0.043095 0
+0.274597 -0.042823 0
+0.276484 -0.045313 0
+0.271103 -0.037783 0
+0.259578 -0.019904 0
+0.262659 -0.024896 0
+0.258245 -0.017479 0
+0.258897 -0.022571 0
+0.258060 -0.019340 0
+0.260957 -0.026579 0
+0.273087 -0.032068 0
+0.277153 -0.032546 0
+0.268498 -0.031529 0
+0.282718 -0.043444 0
+0.285393 -0.042405 0
+0.279510 -0.044405 0
+0.275673 -0.032372 0
+0.279427 -0.032813 0
+0.271402 -0.031870 0
+0.268172 -0.021246 0
+0.272768 -0.023139 0
+0.263066 -0.019309 0
+0.215001 -0.025247 0
+0.237126 -0.027845 0
+0.193924 -0.022772 0
+0.245004 -0.055744 0
+0.258112 -0.050411 0
+0.232773 -0.060291 0
+0.219447 -0.025769 0
+0.241388 -0.028346 0
+0.196803 -0.023110 0
+0.206706 +0.002700 0
+0.229571 -0.006857 0
+0.185979 +0.011118 0
+0.139500 -0.113985 0
+0.151872 -0.112749 0
+0.104406 -0.102184 0
+0.122168 -0.055326 0
+0.088658 -0.069852 0
+0.149525 -0.038014 0
+0.237755 -0.107673 0
+0.241389 -0.105094 0
+0.232731 -0.109622 0
+0.222982 -0.109749 0
+0.225558 -0.110750 0
+0.218660 -0.107923 0
+0.224538 -0.101687 0
+0.219236 -0.103808 0
+0.228502 -0.098961 0
+0.240946 -0.100352 0
+0.236895 -0.098385 0
+0.243183 -0.101531 0
+0.228766 -0.103602 0
+0.236077 -0.099513 0
+0.220913 -0.107445 0
+0.196176 -0.110039 0
+0.203991 -0.111264 0
+0.190486 -0.106470 0
+0.196806 -0.089128 0
+0.190092 -0.094811 0
+0.207968 -0.085460 0
+0.239612 -0.087318 0
+0.231889 -0.084813 0
+0.242685 -0.091024 0
+0.243303 -0.098868 0
+0.243706 -0.100481 0
+0.242444 -0.097067 0
+0.220110 -0.111000 0
+0.223444 -0.111079 0
+0.216358 -0.110712 0
+0.201030 -0.103493 0
+0.207042 -0.104492 0
+0.194635 -0.102298 0
+0.226548 -0.090145 0
+0.229028 -0.092992 0
+0.223639 -0.087127 0
+0.231542 -0.077546 0
+0.235064 -0.085363 0
+0.226858 -0.070542 0
+0.175569 -0.106824 0
+0.191843 -0.107971 0
+0.160878 -0.105054 0
+0.118080 -0.089979 0
+0.151375 -0.094526 0
+0.085874 -0.086009 0
+0.192886 -0.050850 0
+0.204600 -0.066686 0
+0.182435 -0.035501 0
+0.034222 -0.097788 0
+0.048873 -0.093322 0
+0.008313 -0.092743 0
-0.000918 -0.097496 0
-0.017108 -0.092906 0
+0.023271 -0.092657 0
+0.097280 -0.137030 0
+0.101489 -0.137267 0
+0.092680 -0.135897 0
+0.081062 -0.135125 0
+0.084819 -0.134974 0
+0.076488 -0.134332 0
+0.080379 -0.135490 0
+0.075905 -0.134490 0
+0.084538 -0.135594 0
+0.098594 -0.137629 0
+0.093889 -0.136692 0
+0.102395 -0.137601 0
+0.100447 -0.128235 0
+0.107996 -0.129732 0
+0.091703 -0.126938 0
+0.064878 -0.124058 0
+0.073238 -0.124769 0
+0.058196 -0.123884 0
+0.059460 -0.124580 0
+0.054395 -0.124107 0
+0.069913 -0.125716 0
+0.107509 -0.130222 0
+0.096928 -0.128889 0
+0.112748 -0.130959 0
+0.109365 -0.134120 0
+0.107429 -0.135493 0
+0.111103 -0.132494 0
+0.085360 -0.130263 0
+0.086631 -0.132202 0
+0.083926 -0.128074 0
+0.062829 -0.128655 0
+0.067038 -0.130750 0
+0.058492 -0.126316 0
+0.086168 -0.131496 0
+0.087342 -0.133287 0
+0.084834 -0.129459 0
+0.131858 -0.114927 0
+0.121873 -0.121674 0
+0.140298 -0.108662 0
+0.067204 -0.102556 0
+0.074120 -0.113110 0
+0.060616 -0.092502 0
+0.009335 -0.100539 0
+0.030564 -0.110952 0
-0.009406 -0.091083 0
+0.068594 -0.104676 0
+0.075452 -0.115143 0
+0.061516 -0.093875 0
+0.000000 +0.000000 0
+0.000000 +0.000000 0
+0.000000 +0.000000 0
-0.024059 -0.049689 0
-0.013637 -0.026230 0
-0.028250 -0.067894 0
+0.014691 -0.064149 0
+0.016168 -0.068018 0
+0.013238 -0.059847 0
+0.008749 -0.056043 0
+0.010371 -0.055797 0
+0.006961 -0.055892 0
+0.006751 -0.064342 0
+0.005859 -0.060041 0
+0.007704 -0.068205 0
+0.013620 -0.072452 0
+0.011262 -0.072258 0
+0.015757 -0.072170 0
+0.018376 -0.059488 0
+0.021325 -0.067045 0
+0.014791 -0.052102 0
+0.005548 -0.039829 0
+0.008137 -0.041419 0
+0.003319 -0.041573 0
-0.000900 -0.059995 0
-0.000508 -0.052550 0
+0.001199 -0.067467 0
+0.017718 -0.079680 0
+0.011820 -0.078166 0
+0.021466 -0.078041 0
+0.020158 -0.072774 0
+0.018916 -0.072172 0
+0.021370 -0.073243 0
+0.011646 -0.050587 0
+0.011760 -0.052915 0
+0.011507 -0.048158 0
+0.002984 -0.050843 0
+0.003980 -0.053139 0
+0.001972 -0.048447 0
+0.007355 -0.073006 0
+0.008065 -0.072378 0
+0.006636 -0.073502 0
+0.038361 -0.078846 0
+0.030175 -0.075886 0
+0.046408 -0.081133 0
+0.006919 -0.020385 0
+0.009413 -0.032331 0
+0.003726 -0.009682 0
-0.004606 -0.020861 0
-0.002751 -0.032771 0
-0.003676 -0.010020 0
-0.006711 -0.079128 0
+0.000192 -0.076223 0
-0.015429 -0.081155 0
+0.104167 +0.054487 0
+0.137468 +0.036688 0
+0.065297 +0.069373 0
+0.024059 +0.049689 0
+0.028250 +0.067894 0
+0.013637 +0.026230 0
+0.000000 +0.000000 0
+0.000000 +0.000000 0
+0.000000 +0.000000 0
+0.081757 +0.036361 0
+0.076496 +0.034085 0
+0.086417 +0.038347 0
+0.083923 +0.043898 0
+0.087433 +0.042075 0
+0.079936 +0.045471 0
+0.068635 +0.042304 0
+0.072369 +0.044709 0
+0.064349 +0.039587 0
+0.065942 +0.034492 0
+0.062940 +0.035653 0
+0.068536 +0.033118 0
+0.086496 +0.029761 0
+0.074673 +0.026846 0
+0.095438 +0.033583 0
+0.090721 +0.047454 0
+0.097493 +0.043041 0
+0.081192 +0.050423 0
+0.054768 +0.044130 0
+0.061957 +0.048746 0
+0.049644 +0.038181 0
+0.047248 +0.024714 0
+0.045337 +0.027540 0
+0.053176 +0.023990 0
+0.067102 +0.028187 0
+0.068999 +0.029874 0
+0.065079 +0.026444 0
+0.095109 +0.039297 0
+0.092833 +0.039716 0
+0.097206 +0.038804 0
+0.073689 +0.048997 0
+0.074712 +0.047922 0
+0.072530 +0.049980 0
+0.052936 +0.034602 0
+0.056257 +0.035644 0
+0.049510 +0.033495 0
+0.034650 +0.009146 0
+0.049119 +0.016116 0
+0.018316 +0.003865 0
+0.129514 +0.030091 0
+0.113006 +0.034302 0
+0.147391 +0.024851 0
+0.052350 +0.065037 0
+0.062167 +0.057326 0
+0.040325 +0.073338 0
+0.016250 +0.017479 0
+0.029493 +0.025004 0
+0.006603 +0.009169 0
+0.063982 +0.033467 0
+0.120481 +0.006308 0
+0.004261 +0.058941 0
+0.000918 +0.097496 0
-0.023271 +0.092657 0
+0.017108 +0.092906 0
+0.138635 +0.055778 0
+0.139572 +0.056584 0
+0.136701 +0.054515 0
+0.117596 +0.061511 0
+0.126092 +0.057321 0
+0.108398 +0.065334 0
+0.104335 +0.071312 0
+0.101884 +0.070282 0
+0.105918 +0.071825 0
+0.124517 +0.065132 0
+0.115889 +0.068684 0
+0.132419 +0.061198 0
+0.155585 +0.040911 0
+0.153909 +0.044452 0
+0.150131 +0.039953 0
+0.103072 +0.053914 0
+0.121303 +0.046794 0
+0.087170 +0.062252 0
+0.072648 +0.078471 0
+0.071076 +0.075755 0
+0.080026 +0.077912 0
+0.119810 +0.062669 0
+0.105191 +0.069151 0
+0.134145 +0.056039 0
+0.143493 +0.053447 0
+0.141672 +0.055226 0
+0.145047 +0.051565 0
+0.136329 +0.047533 0
+0.135180 +0.050224 0
+0.137221 +0.044751 0
+0.087604 +0.069599 0
+0.093200 +0.069235 0
+0.081839 +0.069832 0
+0.099207 +0.073503 0
+0.102984 +0.072747 0
+0.095238 +0.074122 0
+0.160044 +0.031563 0
+0.153053 +0.039787 0
+0.164524 +0.024582 0
+0.152848 +0.010251 0
+0.144030 +0.025747 0
+0.162447 -0.004998 0
+0.010013 +0.074937 0
+0.042402 +0.071771 0
-0.021928 +0.078500 0
+0.053170 +0.079963 0
+0.070527 +0.077161 0
+0.038542 +0.081636 0
-0.063982 -0.033467 0
-0.004261 -0.058941 0
-0.120481 -0.006308 0
-0.122168 +0.055326 0
-0.149525 +0.038014 0
-0.088658 +0.069852 0
-0.104167 -0.054487 0