# vtk DataFile Version 2.0
this shit
ASCII
DATASET POLYDATA
POINTS 625 double
-6.283185 -6.283185 0.000000
-5.759587 -6.283185 0.000000
-5.235988 -6.283185 0.000000
-4.712389 -6.283185 0.000000
-4.188790 -6.283185 0.000000
-3.665191 -6.283185 0.000000
-3.141593 -6.283185 0.000000
-2.617994 -6.283185 0.000000
-2.094395 -6.283185 0.000000
-1.570796 -6.283185 0.000000
-1.047198 -6.283185 0.000000
-0.523599 -6.283185 0.000000
0.000000 -6.283185 0.000000
0.523599 -6.283185 0.000000
1.047198 -6.283185 0.000000
1.570796 -6.283185 0.000000
2.094395 -6.283185 0.000000
2.617994 -6.283185 0.000000
3.141593 -6.283185 0.000000
3.665191 -6.283185 0.000000
4.188790 -6.283185 0.000000
4.712389 -6.283185 0.000000
5.235988 -6.283185 0.000000
5.759587 -6.283185 0.000000
6.283185 -6.283185 0.000000
-6.283185 -5.759587 0.000000
-5.759587 -5.759587 0.000000
-5.235988 -5.759587 0.000000
-4.712389 -5.759587 0.000000
-4.188790 -5.759587 0.000000
-3.665191 -5.759587 0.000000
-3.141593 -5.759587 0.000000
-2.617994 -5.759587 0.000000
-2.094395 -5.759587 0.000000
-1.570796 -5.759587 0.000000
-1.047198 -5.759587 0.000000
-0.523599 -5.759587 0.000000
0.000000 -5.759587 0.000000
0.523599 -5.759587 0.000000
1.047198 -5.759587 0.000000
1.570796 -5.759587 0.000000
2.094395 -5.759587 0.000000
2.617994 -5.759587 0.000000
3.141593 -5.759587 0.000000
3.665191 -5.759587 0.000000
4.188790 -5.759587 0.000000
4.712389 -5.759587 0.000000
5.235988 -5.759587 0.000000
5.759587 -5.759587 0.000000
6.283185 -5.759587 0.000000
-6.283185 -5.235988 0.000000
-5.759587 -5.235988 0.000000
-5.235988 -5.235988 0.000000
-4.712389 -5.235988 0.000000
-4.188790 -5.235988 0.000000
-3.665191 -5.235988 0.000000
-3.141593 -5.235988 0.000000
-2.617994 -5.235988 0.000000
-2.094395 -5.235988 0.000000
-1.570796 -5.235988 0.000000
-1.047198 -5.235988 0.000000
-0.523599 -5.235988 0.000000
0.000000 -5.235988 0.000000
0.523599 -5.235988 0.000000
1.047198 -5.235988 0.000000
1.570796 -5.235988 0.000000
2.094395 -5.235988 0.000000
2.617994 -5.235988 0.000000
3.141593 -5.235988 0.000000
3.665191 -5.235988 0.000000
4.188790 -5.235988 0.000000
4.712389 -5.235988 0.000000
5.235988 -5.235988 0.000000
5.759587 -5.235988 0.000000
6.283185 -5.235988 0.000000
-6.283185 -4.712389 0.000000
-5.759587 -4.712389 0.000000
-5.235988 -4.712389 0.000000
-4.712389 -4.712389 0.000000
-4.188790 -4.712389 0.000000
-3.665191 -4.712389 0.000000
-3.141593 -4.712389 0.000000
-2.617994 -4.712389 0.000000
-2.094395 -4.712389 0.000000
-1.570796 -4.712389 0.000000
-1.047198 -4.712389 0.000000
-0.523599 -4.712389 0.000000
0.000000 -4.712389 0.000000
0.523599 -4.712389 0.000000
1.047198 -4.712389 0.000000
1.570796 -4.712389 0.000000
2.094395 -4.712389 0.000000
2.617994 -4.712389 0.000000
3.141593 -4.712389 0.000000
3.665191 -4.712389 0.000000
4.188790 -4.712389 0.000000
4.712389 -4.712389 0.000000
5.235988 -4.712389 0.000000
5.759587 -4.712389 0.000000
6.283185 -4.712389 0.000000
-6.283185 -4.188790 0.000000
-5.759587 -4.188790 0.000000
-5.235988 -4.188790 0.000000
-4.712389 -4.188790 0.000000
-4.188790 -4.188790 0.000000
-3.665191 -4.188790 0.000000
-3.141593 -4.188790 0.000000
-2.617994 -4.188790 0.000000
-2.094395 -4.188790 0.000000
-1.570796 -4.188790 0.000000
-1.047198 -4.188790 0.000000
-0.523599 -4.188790 0.000000
0.000000 -4.188790 0.000000
0.523599 -4.188790 0.000000
1.047198 -4.188790 0.000000
1.570796 -4.188790 0.000000
2.094395 -4.188790 0.000000
2.617994 -4.188790 0.000000
3.141593 -4.188790 0.000000
3.665191 -4.188790 0.000000
4.188790 -4.188790 0.000000
4.712389 -4.188790 0.000000
5.235988 -4.188790 0.000000
5.759587 -4.188790 0.000000
6.283185 -4.188790 0.000000
-6.283185 -3.665191 0.000000
-5.759587 -3.665191 0.000000
-5.235988 -3.665191 0.000000
-4.712389 -3.665191 0.000000
-4.188790 -3.665191 0.000000
-3.665191 -3.665191 0.000000
-3.141593 -3.665191 0.000000
-2.617994 -3.665191 0.000000
-2.094395 -3.665191 0.000000
-1.570796 -3.665191 0.000000
-1.047198 -3.665191 0.000000
-0.523599 -3.665191 0.000000
0.000000 -3.665191 0.000000
0.523599 -3.665191 0.000000
1.047198 -3.665191 0.000000
1.570796 -3.665191 0.000000
2.094395 -3.665191 0.000000
2.617994 -3.665191 0.000000
3.141593 -3.665191 0.000000
3.665191 -3.665191 0.000000
4.188790 -3.665191 0.000000
4.712389 -3.665191 0.000000
5.235988 -3.665191 0.000000
5.759587 -3.665191 0.000000
6.283185 -3.665191 0.000000
-6.283185 -3.141593 0.000000
-5.759587 -3.141593 0.000000
-5.235988 -3.141593 0.000000
-4.712389 -3.141593 0.000000
-4.188790 -3.141593 0.000000
-3.665191 -3.141593 0.000000
-3.141593 -3.141593 0.000000
-2.617994 -3.141593 0.000000
-2.094395 -3.141593 0.000000
-1.570796 -3.141593 0.000000
-1.047198 -3.141593 0.000000
-0.523599 -3.141593 0.000000
0.000000 -3.141593 0.000000
0.523599 -3.141593 0.000000
1.047198 -3.141593 0.000000
1.570796 -3.141593 0.000000
2.094395 -3.141593 0.000000
2.617994 -3.141593 0.000000
3.141593 -3.141593 0.000000
3.665191 -3.141593 0.000000
4.188790 -3.141593 0.000000
4.712389 -3.141593 0.000000
5.235988 -3.141593 0.000000
5.759587 -3.141593 0.000000
6.283185 -3.141593 0.000000
-6.283185 -2.617994 0.000000
-5.759587 -2.617994 0.000000
-5.235988 -2.617994 0.000000
-4.712389 -2.617994 0.000000
-4.188790 -2.617994 0.000000
-3.665191 -2.617994 0.000000
-3.141593 -2.617994 0.000000
-2.617994 -2.617994 0.000000
-2.094395 -2.617994 0.000000
-1.570796 -2.617994 0.000000
-1.047198 -2.617994 0.000000
-0.523599 -2.617994 0.000000
0.000000 -2.617994 0.000000
0.523599 -2.617994 0.000000
1.047198 -2.617994 0.000000
1.570796 -2.617994 0.000000
2.094395 -2.617994 0.000000
2.617994 -2.617994 0.000000
3.141593 -2.617994 0.000000
3.665191 -2.617994 0.000000
4.188790 -2.617994 0.000000
4.712389 -2.617994 0.000000
5.235988 -2.617994 0.000000
5.759587 -2.617994 0.000000
6.283185 -2.617994 0.000000
-6.283185 -2.094395 0.000000
-5.759587 -2.094395 0.000000
-5.235988 -2.094395 0.000000
-4.712389 -2.094395 0.000000
-4.188790 -2.094395 0.000000
-3.665191 -2.094395 0.000000
-3.141593 -2.094395 0.000000
-2.617994 -2.094395 0.000000
-2.094395 -2.094395 0.000000
-1.570796 -2.094395 0.000000
-1.047198 -2.094395 0.000000
-0.523599 -2.094395 0.000000
0.000000 -2.094395 0.000000
0.523599 -2.094395 0.000000
1.047198 -2.094395 0.000000
1.570796 -2.094395 0.000000
2.094395 -2.094395 0.000000
2.617994 -2.094395 0.000000
3.141593 -2.094395 0.000000
3.665191 -2.094395 0.000000
4.188790 -2.094395 0.000000
4.712389 -2.094395 0.000000
5.235988 -2.094395 0.000000
5.759587 -2.094395 0.000000
6.283185 -2.094395 0.000000
-6.283185 -1.570796 0.000000
-5.759587 -1.570796 0.000000
-5.235988 -1.570796 0.000000
-4.712389 -1.570796 0.000000
-4.188790 -1.570796 0.000000
-3.665191 -1.570796 0.000000
-3.141593 -1.570796 0.000000
-2.617994 -1.570796 0.000000
-2.094395 -1.570796 0.000000
-1.570796 -1.570796 0.000000
-1.047198 -1.570796 0.000000
-0.523599 -1.570796 0.000000
0.000000 -1.570796 0.000000
0.523599 -1.570796 0.000000
1.047198 -1.570796 0.000000
1.570796 -1.570796 0.000000
2.094395 -1.570796 0.000000
2.617994 -1.570796 0.000000
3.141593 -1.570796 0.000000
3.665191 -1.570796 0.000000
4.188790 -1.570796 0.000000
4.712389 -1.570796 0.000000
5.235988 -1.570796 0.000000
5.759587 -1.570796 0.000000
6.283185 -1.570796 0.000000
-6.283185 -1.047198 0.000000
-5.759587 -1.047198 0.000000
-5.235988 -1.047198 0.000000
-4.712389 -1.047198 0.000000
-4.188790 -1.047198 0.000000
-3.665191 -1.047198 0.000000
-3.141593 -1.047198 0.000000
-2.617994 -1.047198 0.000000
-2.094395 -1.047198 0.000000
-1.570796 -1.047198 0.000000
-1.047198 -1.047198 0.000000
-0.523599 -1.047198 0.000000
0.000000 -1.047198 0.000000
0.523599 -1.047198 0.000000
1.047198 -1.047198 0.000000
1.570796 -1.047198 0.000000
2.094395 -1.047198 0.000000
2.617994 -1.047198 0.000000
3.141593 -1.047198 0.000000
3.665191 -1.047198 0.000000
4.188790 -1.047198 0.000000
4.712389 -1.047198 0.000000
5.235988 -1.047198 0.000000
5.759587 -1.047198 0.000000
6.283185 -1.047198 0.000000
-6.283185 -0.523599 0.000000
-5.759587 -0.523599 0.000000
-5.235988 -0.523599 0.000000
-4.712389 -0.523599 0.000000
-4.188790 -0.523599 0.000000
-3.665191 -0.523599 0.000000
-3.141593 -0.523599 0.000000
-2.617994 -0.523599 0.000000
-2.094395 -0.523599 0.000000
-1.570796 -0.523599 0.000000
-1.047198 -0.523599 0.000000
-0.523599 -0.523599 0.000000
0.000000 -0.523599 0.000000
0.523599 -0.523599 0.000000
1.047198 -0.523599 0.000000
1.570796 -0.523599 0.000000
2.094395 -0.523599 0.000000
2.617994 -0.523599 0.000000
3.141593 -0.523599 0.000000
3.665191 -0.523599 0.000000
4.188790 -0.523599 0.000000
4.712389 -0.523599 0.000000
5.235988 -0.523599 0.000000
5.759587 -0.523599 0.000000
6.283185 -0.523599 0.000000
-6.283185 0.000000 0.000000
-5.759587 0.000000 0.000000
-5.235988 0.000000 0.000000
-4.712389 0.000000 0.000000
-4.188790 0.000000 0.000000
-3.665191 0.000000 0.000000
-3.141593 0.000000 0.000000
-2.617994 0.000000 0.000000
-2.094395 0.000000 0.000000
-1.570796 0.000000 0.000000
-1.047198 0.000000 0.000000
-0.523599 0.000000 0.000000
0.000000 0.000000 0.000000
0.523599 0.000000 0.000000
1.047198 0.000000 0.000000
1.570796 0.000000 0.000000
2.094395 0.000000 0.000000
2.617994 0.000000 0.000000
3.141593 0.000000 0.000000
3.665191 0.000000 0.000000
4.188790 0.000000 0.000000
4.712389 0.000000 0.000000
5.235988 0.000000 0.000000
5.759587 0.000000 0.000000
6.283185 0.000000 0.000000
-6.283185 0.523599 0.000000
-5.759587 0.523599 0.000000
-5.235988 0.523599 0.000000
-4.712389 0.523599 0.000000
-4.188790 0.523599 0.000000
-3.665191 0.523599 0.000000
-3.141593 0.523599 0.000000
-2.617994 0.523599 0.000000
-2.094395 0.523599 0.000000
-1.570796 0.523599 0.000000
-1.047198 0.523599 0.000000
-0.523599 0.523599 0.000000
0.000000 0.523599 0.000000
0.523599 0.523599 0.000000
1.047198 0.523599 0.000000
1.570796 0.523599 0.000000
2.094395 0.523599 0.000000
2.617994 0.523599 0.000000
3.141593 0.523599 0.000000
3.665191 0.523599 0.000000
4.188790 0.523599 0.000000
4.712389 0.523599 0.000000
5.235988 0.523599 0.000000
5.759587 0.523599 0.000000
6.283185 0.523599 0.000000
[...]
POINT_DATA 625
SCALARS solution_0 double
LOOKUP_TABLE defaul
0.795795
0.959521
0.889688
0.740348
0.650542
0.619407
0.634491
0.691150
0.697679
0.529747
0.349740
0.321306
0.458738
0.602944
0.553342
0.467159
0.447403
0.477177
0.564085
0.713472
0.782856
0.663274
0.565884
0.615371
0.799421
0.949770
1.111880
0.972976
0.811639
0.717628
0.678123
0.688044
0.717494
0.603174
0.322771
0.115880
0.103192
0.268216
0.391574
0.285934
0.183720
0.163172
0.195736
0.287180
0.447534
0.541738
0.438174
0.345070
0.401491
0.605654
0.940194
0.964165
0.738421
0.572145
0.470444
0.415654
0.405165
0.395995
0.245298
-0.026079
-0.208026
-0.190642
0.003866
0.132620
0.026268
-0.060731
-0.060889
-0.005431
0.112076
0.302420
0.423831
0.330481
0.240857
0.295455
0.507291
0.775041
0.731565
0.494353
0.307467
0.189892
0.133174
0.120214
0.096878
-0.039887
-0.263491
-0.403596
-0.359555
-0.155514
-0.030673
-0.117584
-0.174758
-0.146166
-0.061914
0.090177
0.318029
0.446186
0.340350
0.258565
0.309836
0.520231
0.638062
0.602768
0.361014
0.132479
-0.004468
-0.042501
-0.018884
-0.015842
-0.127282
-0.312346
-0.415130
-0.354921
-0.165568
-0.064520
-0.117446
-0.129615
-0.070105
0.036193
0.221997
0.489116
0.554332
0.393562
0.331563
0.386815
0.592435
0.591020
0.597320
0.347378
0.060033
-0.085353
-0.074188
0.037235
0.116405
0.004386
-0.205244
-0.284753
-0.207170
-0.044678
0.013772
0.015193
0.071736
0.154612
0.239240
0.442479
0.683110
0.466750
0.291882
0.283782
0.378223
0.591835
0.618583
0.682269
0.401747
0.044713
-0.082953
0.004643
0.229505
0.355148
0.039878
-0.211030
-0.215400
-0.081648
0.015693
0.018748
0.024016
-0.063886
-0.097900
0.024341
0.280892
0.319717
0.104028
0.034218
0.124038
0.285556
0.496008
0.650222
0.761079
0.344995
-0.048644
-0.145943
0.000433
0.229185
-0.045145
-0.374518
-0.491043
-0.388591
-0.230896
-0.189575
-0.157412
-0.232768
-0.467110
-0.560420
-0.422090
-0.114199
-0.055209
-0.198771
-0.170881
0.022448
0.243452
0.419616
0.561077
0.654340
0.158549
-0.242088
-0.357598
-0.221959
-0.044353
-0.399343
-0.684783
-0.711976
-0.527557
-0.362177
-0.345460
-0.280033
-0.399376
-0.734317
-0.875137
-0.731798
-0.367282
-0.240489
-0.342916
-0.249451
0.030784
0.299200
0.424022
0.362801
0.453894
0.044935
-0.383525
-0.546611
-0.439234
-0.268734
-0.603793
-0.840310
-0.792804
-0.532965
-0.362029
-0.378436
-0.291617
-0.418404
-0.817010
-0.982391
-0.827682
-0.410293
-0.246337
-0.343323
-0.208878
0.143027
0.448547
0.511522
0.239785
0.361231
0.058225
-0.409511
-0.622241
-0.540516
-0.358914
-0.655141
-0.847751
-0.738020
-0.407475
-0.233672
-0.289907
-0.185567
-0.276298
-0.703313
-0.878782
-0.720050
-0.295294
-0.194229
-0.284584
-0.104431
0.321877
0.641060
0.620395
0.273533
0.404441
0.176034
-0.325268
-0.575561
-0.510891
-0.317149
-0.583661
-0.744474
-0.588027
-0.193506
-0.020278
-0.115017
0.012274
-0.047288
-0.494118
-0.680522
-0.533474
-0.176056
-0.235241
-0.301726
-0.060479
0.443419
0.703841
0.602866
0.432561
0.555040
0.349073
-0.172324
-0.438358
-0.380441
-0.207343
-0.483272
-0.627340
-0.443026
-0.000620
0.130437
0.000000
0.130437
-0.000620
-0.443026
-0.627340
-0.483272
-0.207343
-0.380441
-0.438358
-0.172324
0.349073
0.555040
0.432561
0.602866
0.703841
0.443419
-0.060479
-0.301726
-0.235241
-0.176056
-0.533474
-0.680522
-0.494118
-0.047288
0.012274
-0.115017
-0.020278
-0.193506
-0.588027
-0.744474
-0.583661
-0.317149
-0.510891
-0.575561
-0.325268
0.176034
0.404441
0.273533
0.620395
0.641060
0.321877
-0.104431
-0.284584
-0.194229
-0.295294
-0.720050
-0.878782
-0.703313
-0.276298
-0.185567
-0.289907
-0.233672
-0.407475
-0.738020
-0.847751
-0.655141
-0.358914
-0.540516
-0.622241
-0.409511
0.058225
0.361231
0.239785
0.511522
0.448547
0.143027
-0.208878
-0.343323
-0.246337
-0.410293
-0.827682
-0.982391
-0.817010
-0.418404
-0.291617
-0.378436
-0.362029
-0.532965
-0.792804
-0.840310
-0.603793
-0.268734
-0.439234
-0.546611
-0.383525
0.044935
0.453894
0.362801
0.424022
0.299200
0.030784
-0.249451
-0.342916
-0.240489
-0.367282
-0.731798
-0.875137
-0.734317
-0.399376
-0.280033
-0.345460
-0.362177
-0.527557
-0.711976
-0.684783
-0.399343
-0.044353
-0.221959
-0.357598
-0.242088
0.158549
0.654340
0.561077
0.419616
0.243452
0.022448
-0.170881
-0.198771
-0.055209
-0.114199
-0.422090
-0.560420
-0.467110
-0.232768
-0.157412
-0.189575
-0.230896
-0.388591
-0.491043
-0.374518
-0.045145
0.229185
0.000433
-0.145943
-0.048644
0.344995
0.761079
0.650222
0.496008
0.285556
0.124038
0.034218
0.104028
0.319717
0.280892
0.024341
-0.097900
-0.063886
0.024016
0.018748
0.015693
-0.081648
-0.215400
-0.211030
0.039878
0.355148
0.229505
0.004643
-0.082953
0.044713
0.401747
0.682269
0.618583
0.591835
0.378223
0.283782
0.291882
0.466750
0.683110
0.442479
0.239240
0.154612
0.071736
0.015193
0.013772
-0.044678
-0.207170
-0.284753
-0.205244
0.004386
0.116405
0.037235
-0.074188
-0.085353
0.060033
0.347378
0.597320
0.591020
0.592435
0.386815
0.331563
0.393562
0.554332
0.489116
0.221997
0.036193
-0.070105
-0.129615
-0.117446
-0.064520
-0.165568
-0.354921
-0.415130
-0.312346
-0.127282
-0.015842
-0.018884
-0.042501
-0.004468
0.132479
0.361014
0.602768
0.638062
0.520231
0.309836
0.258565
0.340350
0.446186
0.318029
0.090177
-0.061914
-0.146166
-0.174758
-0.117584
-0.030673
-0.155514
-0.359555
-0.403596
-0.263491
-0.039887
0.096878
0.120214
0.133174
0.189892
0.307467
0.494353
0.731565
0.775041
0.507291
0.295455
0.240857
0.330481
0.423831
0.302420
0.112076
-0.005431
-0.060889
-0.060731
0.026268
0.132620
0.003866
-0.190642
-0.208026
-0.026079
0.245298
0.395995
0.405165
0.415654
0.470444
0.572145
0.738421
0.964165
0.940194
0.605654
0.401491
0.345070
0.438174
0.541738
0.447534
0.287180
0.195736
0.163172
0.183720
0.285934
0.391574
0.268216
0.103192
0.115880
0.322771
0.603174
0.717494
0.688044
0.678123
0.717628
0.811639
0.972976
1.111880
0.949770
0.799421
0.615371
0.565884
0.663274
0.782856
0.713472
0.564085
0.477177
0.447403
0.467159
0.553342
0.602944
0.458738
0.321306
0.349740
0.529747
0.697679
0.691150
0.634491
0.619407
0.650542
0.740348
0.889688
0.959521
0.795795
SCALARS solution_1 double
LOOKUP_TABLE defaul
2.492780
2.131274
1.930080
1.837269
1.799976
1.733911
1.702388
1.735661
1.661724
1.556930
1.487073
1.551555
1.745283
1.783291
1.701352
1.641663
1.633388
1.639032
1.664608
1.727199
1.833914
2.041279
2.077846
2.143988
2.263549
2.156041
1.817593
1.686847
1.621028
1.624813
1.598811
1.581560
1.628608
1.645867
1.644708
1.558623
1.632999
1.784168
1.582963
1.806982
1.877529
1.901988
1.910617
1.869203
1.744988
1.739922
2.092659
2.270892
2.279304
2.099069
1.888675
1.773324
1.917121
1.910728
1.957651
1.940163
1.826778
1.585675
1.555516
1.807069
1.719913
1.793771
1.484478
1.307357
1.610406
1.872937
1.918506
1.903536
1.821021
1.626176
1.594847
1.996141
2.237828
2.231224
1.958681
1.685732
1.665899
1.966362
2.202232
2.274845
1.961601
1.570726
1.308972
1.314163
1.605656
1.523104
1.636749
1.297450
1.166043
1.492764
1.689524
1.665194
1.692671
1.698648
1.512066
1.479775
1.896396
1.888621
1.960433
1.868429
1.571437
1.503850
1.756372
2.095748
2.148087
1.774653
1.348469
1.123128
1.135380
1.163475
1.077178
1.230655
1.143392
1.104762
1.168532
1.091886
1.104334
1.237361
1.442175
1.364959
1.311414
1.547787
1.485953
1.618920
1.721998
1.548124
1.366395
1.513595
1.849934
1.841541
1.642903
1.194565
0.918512
0.707757
0.643843
0.622907
0.744266
0.771057
0.785675
0.642342
0.494407
0.491014
0.701968
0.999650
1.073770
1.220236
1.425119
1.434117
1.600602
1.590035
1.569536
1.233962
1.250189
1.400190
1.257147
1.199047
0.969436
0.598191
0.446828
0.447591
0.417535
0.473829
0.574581
0.651070
0.479825
0.463358
0.534836
0.706536
0.944663
0.964652
1.284940
1.596327
1.679110
1.716039
1.518669
1.508616
1.046401
1.155424
1.213145
0.991812
0.945431
0.735258
1.016552
0.836946
0.745366
0.637611
0.655048
0.873645
0.803773
0.684307
0.867786
0.913752
0.950063
0.660764
0.715587
1.214795
1.676864
1.704115
1.601827
1.500979
1.362884
0.902671
1.229999
1.402205
1.144776
0.989203
0.538818
0.909142
1.225109
1.156247
0.866012
0.754732
0.874438
0.670383
0.638587
1.102598
1.155169
0.949605
0.479466
0.570384
1.188146
1.684783
1.637016
1.520683
1.548926
1.315563
0.886109
1.198194
1.710343
1.415035
0.961896
0.407382
0.795922
1.290947
1.359084
0.897317
0.750879
0.870430
0.596695
0.541394
1.125911
1.178980
0.992937
0.465378
0.581953
1.213793
1.563931
1.610405
1.509212
1.648000
1.374286
0.973239
1.171385
1.739814
1.477648
0.953521
0.378444
0.755439
1.180243
1.319992
0.912444
0.797096
0.972755
0.672668
0.562949
1.033335
0.887961
0.908989
0.558782
0.776465
1.057374
1.260139
1.501217
1.515136
1.755061
1.525502
1.165049
1.245443
1.523264
1.316460
0.994105
0.443852
0.737533
0.931484
1.142273
0.963870
0.886756
1.134081
0.833232
0.699532
0.808725
0.609982
0.658611
0.599880
0.996781
0.944935
1.095717
1.350421
1.485219
1.830400
1.722576
1.381292
1.352355
1.234060
1.077703
1.013068
0.553358
0.635946
0.643515
0.862612
0.912351
0.919829
1.242104
0.919829
0.912351
0.862612
0.643515
0.635946
0.553358
1.013068
1.077703
1.234060
1.352355
1.381292
1.722576
1.830400
1.485219
1.350421
1.095717
0.944935
0.996781
0.599880
0.658611
0.609982
0.808725
0.699532
0.833232
1.134081
0.886756
0.963870
1.142273
0.931484
0.737533
0.443852
0.994105
1.316460
1.523264
1.245443
1.165049
1.525502
1.755061
1.515136
1.501217
1.260139
1.057374
0.776465
0.558782
0.908989
0.887961
1.033335
0.562949
0.672668
0.972755
0.797096
0.912444
1.319992
1.180243
0.755439
0.378444
0.953521
1.477648
1.739814
1.171385
0.973239
1.374286
1.648000
1.509212
1.610405
1.563931
1.213793
0.581953
0.465378
0.992937
1.178980
1.125911
0.541394
0.596695
0.870430
0.750879
0.897317
1.359084
1.290947
0.795922
0.407382
0.961896
1.415035
1.710343
1.198194
0.886109
1.315563
1.548926
1.520683
1.637016
1.684783
1.188146
0.570384
0.479466
0.949605
1.155169
1.102598
0.638587
0.670383
0.874438
0.754732
0.866012
1.156247
1.225109
0.909142
0.538818
0.989203
1.144776
1.402205
1.229999
0.902671
1.362884
1.500979
1.601827
1.704115
1.676864
1.214795
0.715587
0.660764
0.950063
0.913752
0.867786
0.684307
0.803773
0.873645
0.655048
0.637611
0.745366
0.836946
1.016552
0.735258
0.945431
0.991812
1.213145
1.155424
1.046401
1.508616
1.518669
1.716039
1.679110
1.596327
1.284940
0.964652
0.944663
0.706536
0.534836
0.463358
0.479825
0.651070
0.574581
0.473829
0.417535
0.447591
0.446828
0.598191
0.969436
1.199047
1.257147
1.400190
1.250189
1.233962
1.569536
1.590035
1.600602
1.434117
1.425119
1.220236
1.073770
0.999650
0.701968
0.491014
0.494407
0.642342
0.785675
0.771057
0.744266
0.622907
0.643843
0.707757
0.918512
1.194565
1.642903
1.841541
1.849934
1.513595
1.366395
1.548124
1.721998
1.618920
1.485953
1.547787
1.311414
1.364959
1.442175
1.237361
1.104334
1.091886
1.168532
1.104762
1.143392
1.230655
1.077178
1.163475
1.135380
1.123128
1.348469
1.774653
2.148087
2.095748
1.756372
1.503850
1.571437
1.868429
1.960433
1.888621
1.896396
1.479775
1.512066
1.698648
1.692671
1.665194
1.689524
1.492764
1.166043
1.297450
1.636749
1.523104
1.605656
1.314163
1.308972
1.570726
1.961601
2.274845
2.202232
1.966362
1.665899
1.685732
1.958681
2.231224
2.237828
1.996141
1.594847
1.626176
1.821021
1.903536
1.918506
1.872937
1.610406
1.307357
1.484478
1.793771
1.719913
1.807069
1.555516
1.585675
1.826778
1.940163
1.957651
1.910728
1.917121
1.773324
1.888675
2.099069
2.279304
2.270892
2.092659
1.739922
1.744988
1.869203
1.910617
1.901988
1.877529
1.806982
1.582963
1.784168
1.632999
1.558623
1.644708
1.645867
1.628608
1.581560
1.598811
1.624813
1.621028
1.686847
1.817593
2.156041
2.263549
2.143988
2.077846
2.041279
1.833914
1.727199
1.664608
1.639032
1.633388
1.641663
1.701352
1.783291
1.745283
1.551555
1.487073
1.556930
1.661724
1.735661
1.702388
1.733911
1.799976
1.837269
1.930080
2.131274
2.492780
SCALARS solution_2 double
LOOKUP_TABLE defaul
2.664249
2.506684
2.561710
2.890056
3.091799
3.060253
2.744622
2.376142
2.309712
2.526195
2.854859
2.733231
2.209895
1.979854
2.160891
2.516606
2.799059
2.855342
2.652612
2.418647
2.462921
2.707132
3.106791
3.078831
2.747955
2.438695
2.441818
2.562413
2.877704
2.928388
2.727578
2.364175
2.032432
2.076801
2.335227
2.623854
2.392573
1.965387
2.110704
2.076577
2.358285
2.626939
2.704134
2.612613
2.586696
2.712350
2.708981
2.916801
2.945358
2.941716
2.383008
2.446398
2.432445
2.628431
2.555971
2.303891
2.037712
2.037452
2.153017
2.021805
2.263155
2.085752
2.261724
2.328887
2.140214
2.222212
2.509315
2.729812
2.696930
2.701874
2.757561
2.562713
2.643019
2.703620
2.850691
2.699612
2.741783
2.552789
2.489042
2.386295
2.343775
2.309522
2.301748
2.119312
1.762088
2.042951
1.888259
2.168243
1.974134
1.751079
1.867510
2.237307
2.494946
2.354326
2.304496
2.352447
2.158040
2.456894
2.435256
2.441999
3.053878
2.946888
2.700540
2.504931
2.407448
2.329540
2.281677
2.031211
1.665885
1.638268
1.986480
1.728234
1.701634
1.469263
1.495882
1.826295
2.165398
2.306053
1.862738
1.696924
1.954918
2.098883
2.404265
2.298034
2.164160
3.059453
2.702485
2.461071
2.250874
2.217688
1.913952
1.850692
1.511918
1.570606
1.833274
2.097850
1.576252
1.457891
1.389125
1.584072
1.869545
2.218969
2.071939
1.471572
1.292861
1.821720
2.139700
2.279153
2.124493
2.171122
2.687117
2.300830
2.161901
2.196682
2.340826
1.764427
1.435023
1.271754
1.766574
2.234342
1.948446
1.359779
1.237048
1.303069
1.602823
1.847412
2.088739
1.640556
1.135990
1.413182
1.934895
2.086795
2.124866
2.141764
2.471723
2.387282
2.081740
2.002746
2.180153
2.276993
1.555989
1.344721
1.121201
1.775187
2.010336
1.654257
1.246561
1.074025
1.203126
1.520263
1.705303
1.886837
1.428828
1.476317
1.922000
2.197652
2.157139
2.294717
2.494494
2.838011
2.371562
2.184339
2.019984
2.075878
2.094770
1.485364
1.719359
1.617196
1.743626
1.794077
1.651320
1.515415
1.483240
1.604892
1.772853
1.658107
1.826785
1.546390
1.765675
2.030303
2.053249
2.165303
2.409926
2.599697
2.858716
2.533022
2.477666
2.239445
1.951500
2.029660
1.708720
2.132595
1.957403
1.996884
1.862085
1.931159
1.933972
1.931286
1.967732
1.944523
1.542759
1.715455
1.447341
1.651783
1.598779
1.738624
2.150187
2.203691
2.319663
2.487945
2.668942
2.689319
2.301436
1.993582
2.145080
1.841260
1.905444
1.762237
2.100105
1.971249
1.995424
1.973406
1.896541
1.867537
1.680704
1.394549
1.848012
1.373975
1.368666
1.218330
1.773617
2.324648
1.948875
1.974508
2.117528
2.537971
2.528491
2.050810
2.084180
2.285910
1.714926
1.498454
1.429334
2.077615
1.917186
1.676350
1.607073
1.489808
1.501319
1.383118
1.576576
2.142622
1.449702
1.210892
1.158990
2.067657
2.398145
1.797173
1.890556
1.984366
2.208969
2.143081
1.768834
2.240797
2.312596
1.469965
1.208648
1.353211
2.168929
1.827372
1.353612
1.351024
1.242110
1.351024
1.353612
1.827372
2.168929
1.353211
1.208648
1.469965
2.312596
2.240797
1.768834
2.143081
2.208969
1.984366
1.890556
1.797173
2.398145
2.067657
1.158990
1.210892
1.449702
2.142622
1.576576
1.383118
1.501319
1.489808
1.607073
1.676350
1.917186
2.077615
1.429334
1.498454
1.714926
2.285910
2.084180
2.050810
2.528491
2.537971
2.117528
1.974508
1.948875
2.324648
1.773617
1.218330
1.368666
1.373975
1.848012
1.394549
1.680704
1.867537
1.896541
1.973406
1.995424
1.971249
2.100105
1.762237
1.905444
1.841260
2.145080
1.993582
2.301436
2.689319
2.668942
2.487945
2.319663
2.203691
2.150187
1.738624
1.598779
1.651783
1.447341
1.715455
1.542759
1.944523
1.967732
1.931286
1.933972
1.931159
1.862085
1.996884
1.957403
2.132595
1.708720
2.029660
1.951500
2.239445
2.477666
2.533022
2.858716
2.599697
2.409926
2.165303
2.053249
2.030303
1.765675
1.546390
1.826785
1.658107
1.772853
1.604892
1.483240
1.515415
1.651320
1.794077
1.743626
1.617196
1.719359
1.485364
2.094770
2.075878
2.019984
2.184339
2.371562
2.838011
2.494494
2.294717
2.157139
2.197652
1.922000
1.476317
1.428828
1.886837
1.705303
1.520263
1.203126
1.074025
1.246561
1.654257
2.010336
1.775187
1.121201
1.344721
1.555989
2.276993
2.180153
2.002746
2.081740
2.387282
2.471723
2.141764
2.124866
2.086795
1.934895
1.413182
1.135990
1.640556
2.088739
1.847412
1.602823
1.303069
1.237048
1.359779
1.948446
2.234342
1.766574
1.271754
1.435023
1.764427
2.340826
2.196682
2.161901
2.300830
2.687117
2.171122
2.124493
2.279153
2.139700
1.821720
1.292861
1.471572
2.071939
2.218969
1.869545
1.584072
1.389125
1.457891
1.576252
2.097850
1.833274
1.570606
1.511918
1.850692
1.913952
2.217688
2.250874
2.461071
2.702485
3.059453
2.164160
2.298034
2.404265
2.098883
1.954918
1.696924
1.862738
2.306053
2.165398
1.826295
1.495882
1.469263
1.701634
1.728234
1.986480
1.638268
1.665885
2.031211
2.281677
2.329540
2.407448
2.504931
2.700540
2.946888
3.053878
2.441999
2.435256
2.456894
2.158040
2.352447
2.304496
2.354326
2.494946
2.237307
1.867510
1.751079
1.974134
2.168243
1.888259
2.042951
1.762088
2.119312
2.301748
2.309522
2.343775
2.386295
2.489042
2.552789
2.741783
2.699612
2.850691
2.703620
2.643019
2.562713
2.757561
2.701874
2.696930
2.729812
2.509315
2.222212
2.140214
2.328887
2.261724
2.085752
2.263155
2.021805
2.153017
2.037452
2.037712
2.303891
2.555971
2.628431
2.432445
2.446398
2.383008
2.941716
2.945358
2.916801
2.708981
2.712350
2.586696
2.612613
2.704134
2.626939
2.358285
2.076577
2.110704
1.965387
2.392573
2.623854
2.335227
2.076801
2.032432
2.364175
2.727578
2.928388
2.877704
2.562413
2.441818
2.438695
2.747955
3.078831
3.106791
2.707132
2.462921
2.418647
2.652612
2.855342
2.799059
2.516606
2.160891
1.979854
2.209895
2.733231
2.854859
2.526195
2.309712
2.376142
2.744622
3.060253
3.091799
2.890056
2.561710
2.506684
2.664249
