# vtk DataFile Version 2.0
this shit
ASCII
DATASET POLYDATA
POINTS 400 double
0.000000 0.000000 0.000000
0.330694 0.000000 0.000000
0.661388 0.000000 0.000000
0.992082 0.000000 0.000000
1.322776 0.000000 0.000000
1.653470 0.000000 0.000000
1.984164 0.000000 0.000000
2.314858 0.000000 0.000000
2.645552 0.000000 0.000000
2.976246 0.000000 0.000000
3.306940 0.000000 0.000000
3.637634 0.000000 0.000000
3.968328 0.000000 0.000000
4.299022 0.000000 0.000000
4.629715 0.000000 0.000000
4.960409 0.000000 0.000000
5.291103 0.000000 0.000000
5.621797 0.000000 0.000000
5.952491 0.000000 0.000000
6.283185 0.000000 0.000000
0.000000 0.330694 0.000000
0.330694 0.330694 0.000000
0.661388 0.330694 0.000000
0.992082 0.330694 0.000000
1.322776 0.330694 0.000000
1.653470 0.330694 0.000000
1.984164 0.330694 0.000000
2.314858 0.330694 0.000000
2.645552 0.330694 0.000000
2.976246 0.330694 0.000000
3.306940 0.330694 0.000000
3.637634 0.330694 0.000000
3.968328 0.330694 0.000000
4.299022 0.330694 0.000000
4.629715 0.330694 0.000000
4.960409 0.330694 0.000000
5.291103 0.330694 0.000000
5.621797 0.330694 0.000000
5.952491 0.330694 0.000000
6.283185 0.330694 0.000000
0.000000 0.661388 0.000000
0.330694 0.661388 0.000000
0.661388 0.661388 0.000000
0.992082 0.661388 0.000000
1.322776 0.661388 0.000000
1.653470 0.661388 0.000000
1.984164 0.661388 0.000000
2.314858 0.661388 0.000000
2.645552 0.661388 0.000000
2.976246 0.661388 0.000000
3.306940 0.661388 0.000000
3.637634 0.661388 0.000000
3.968328 0.661388 0.000000
4.299022 0.661388 0.000000
4.629715 0.661388 0.000000
4.960409 0.661388 0.000000
5.291103 0.661388 0.000000
5.621797 0.661388 0.000000
5.952491 0.661388 0.000000
6.283185 0.661388 0.000000
0.000000 0.992082 0.000000
0.330694 0.992082 0.000000
0.661388 0.992082 0.000000
0.992082 0.992082 0.000000
1.322776 0.992082 0.000000
1.653470 0.992082 0.000000
1.984164 0.992082 0.000000
2.314858 0.992082 0.000000
2.645552 0.992082 0.000000
2.976246 0.992082 0.000000
3.306940 0.992082 0.000000
3.637634 0.992082 0.000000
3.968328 0.992082 0.000000
4.299022 0.992082 0.000000
4.629715 0.992082 0.000000
4.960409 0.992082 0.000000
5.291103 0.992082 0.000000
5.621797 0.992082 0.000000
5.952491 0.992082 0.000000
6.283185 0.992082 0.000000
0.000000 1.322776 0.000000
0.330694 1.322776 0.000000
0.661388 1.322776 0.000000
0.992082 1.322776 0.000000
1.322776 1.322776 0.000000
1.653470 1.322776 0.000000
1.984164 1.322776 0.000000
2.314858 1.322776 0.000000
2.645552 1.322776 0.000000
2.976246 1.322776 0.000000
3.306940 1.322776 0.000000
3.637634 1.322776 0.000000
3.968328 1.322776 0.000000
4.299022 1.322776 0.000000
4.629715 1.322776 0.000000
4.960409 1.322776 0.000000
5.291103 1.322776 0.000000
5.621797 1.322776 0.000000
5.952491 1.322776 0.000000
6.283185 1.322776 0.000000
0.000000 1.653470 0.000000
0.330694 1.653470 0.000000
0.661388 1.653470 0.000000
0.992082 1.653470 0.000000
1.322776 1.653470 0.000000
1.653470 1.653470 0.000000
1.984164 1.653470 0.000000
2.314858 1.653470 0.000000
2.645552 1.653470 0.000000
2.976246 1.653470 0.000000
3.306940 1.653470 0.000000
3.637634 1.653470 0.000000
3.968328 1.653470 0.000000
4.299022 1.653470 0.000000
4.629715 1.653470 0.000000
4.960409 1.653470 0.000000
5.291103 1.653470 0.000000
5.621797 1.653470 0.000000
5.952491 1.653470 0.000000
6.283185 1.653470 0.000000
0.000000 1.984164 0.000000
0.330694 1.984164 0.000000
0.661388 1.984164 0.000000
0.992082 1.984164 0.000000
1.322776 1.984164 0.000000
1.653470 1.984164 0.000000
1.984164 1.984164 0.000000
2.314858 1.984164 0.000000
2.645552 1.984164 0.000000
2.976246 1.984164 0.000000
3.306940 1.984164 0.000000
3.637634 1.984164 0.000000
3.968328 1.984164 0.000000
4.299022 1.984164 0.000000
4.629715 1.984164 0.000000
4.960409 1.984164 0.000000
5.291103 1.984164 0.000000
5.621797 1.984164 0.000000
5.952491 1.984164 0.000000
6.283185 1.984164 0.000000
0.000000 2.314858 0.000000
0.330694 2.314858 0.000000
0.661388 2.314858 0.000000
0.992082 2.314858 0.000000
1.322776 2.314858 0.000000
1.653470 2.314858 0.000000
1.984164 2.314858 0.000000
2.314858 2.314858 0.000000
2.645552 2.314858 0.000000
2.976246 2.314858 0.000000
3.306940 2.314858 0.000000
3.637634 2.314858 0.000000
3.968328 2.314858 0.000000
4.299022 2.314858 0.000000
4.629715 2.314858 0.000000
4.960409 2.314858 0.000000
5.291103 2.314858 0.000000
5.621797 2.314858 0.000000
5.952491 2.314858 0.000000
6.283185 2.314858 0.000000
0.000000 2.645552 0.000000
0.330694 2.645552 0.000000
0.661388 2.645552 0.000000
0.992082 2.645552 0.000000
1.322776 2.645552 0.000000
1.653470 2.645552 0.000000
1.984164 2.645552 0.000000
2.314858 2.645552 0.000000
2.645552 2.645552 0.000000
2.976246 2.645552 0.000000
3.306940 2.645552 0.000000
3.637634 2.645552 0.000000
3.968328 2.645552 0.000000
4.299022 2.645552 0.000000
4.629715 2.645552 0.000000
4.960409 2.645552 0.000000
5.291103 2.645552 0.000000
5.621797 2.645552 0.000000
5.952491 2.645552 0.000000
6.283185 2.645552 0.000000
0.000000 2.976246 0.000000
0.330694 2.976246 0.000000
0.661388 2.976246 0.000000
0.992082 2.976246 0.000000
1.322776 2.976246 0.000000
1.653470 2.976246 0.000000
1.984164 2.976246 0.000000
2.314858 2.976246 0.000000
2.645552 2.976246 0.000000
2.976246 2.976246 0.000000
3.306940 2.976246 0.000000
3.637634 2.976246 0.000000
3.968328 2.976246 0.000000
4.299022 2.976246 0.000000
4.629715 2.976246 0.000000
4.960409 2.976246 0.000000
5.291103 2.976246 0.000000
5.621797 2.976246 0.000000
5.952491 2.976246 0.000000
6.283185 2.976246 0.000000
0.000000 3.306940 0.000000
0.330694 3.306940 0.000000
0.661388 3.306940 0.000000
0.992082 3.306940 0.000000
1.322776 3.306940 0.000000
1.653470 3.306940 0.000000
1.984164 3.306940 0.000000
2.314858 3.306940 0.000000
2.645552 3.306940 0.000000
2.976246 3.306940 0.000000
3.306940 3.306940 0.000000
3.637634 3.306940 0.000000
3.968328 3.306940 0.000000
4.299022 3.306940 0.000000
4.629715 3.306940 0.000000
4.960409 3.306940 0.000000
5.291103 3.306940 0.000000
5.621797 3.306940 0.000000
5.952491 3.306940 0.000000
6.283185 3.306940 0.000000
0.000000 3.637634 0.000000
0.330694 3.637634 0.000000
0.661388 3.637634 0.000000
0.992082 3.637634 0.000000
1.322776 3.637634 0.000000
1.653470 3.637634 0.000000
1.984164 3.637634 0.000000
2.314858 3.637634 0.000000
2.645552 3.637634 0.000000
2.976246 3.637634 0.000000
3.306940 3.637634 0.000000
3.637634 3.637634 0.000000
3.968328 3.637634 0.000000
4.299022 3.637634 0.000000
4.629715 3.637634 0.000000
4.960409 3.637634 0.000000
5.291103 3.637634 0.000000
5.621797 3.637634 0.000000
5.952491 3.637634 0.000000
6.283185 3.637634 0.000000
0.000000 3.968328 0.000000
0.330694 3.968328 0.000000
0.661388 3.968328 0.000000
0.992082 3.968328 0.000000
1.322776 3.968328 0.000000
1.653470 3.968328 0.000000
1.984164 3.968328 0.000000
2.314858 3.968328 0.000000
2.645552 3.968328 0.000000
2.976246 3.968328 0.000000
3.306940 3.968328 0.000000
3.637634 3.968328 0.000000
3.968328 3.968328 0.000000
4.299022 3.968328 0.000000
4.629715 3.968328 0.000000
4.960409 3.968328 0.000000
5.291103 3.968328 0.000000
5.621797 3.968328 0.000000
5.952491 3.968328 0.000000
6.283185 3.968328 0.000000
0.000000 4.299022 0.000000
0.330694 4.299022 0.000000
0.661388 4.299022 0.000000
0.992082 4.299022 0.000000
1.322776 4.299022 0.000000
1.653470 4.299022 0.000000
1.984164 4.299022 0.000000
2.314858 4.299022 0.000000
2.645552 4.299022 0.000000
2.976246 4.299022 0.000000
3.306940 4.299022 0.000000
3.637634 4.299022 0.000000
3.968328 4.299022 0.000000
4.299022 4.299022 0.000000
4.629715 4.299022 0.000000
4.960409 4.299022 0.000000
5.291103 4.299022 0.000000
5.621797 4.299022 0.000000
5.952491 4.299022 0.000000
6.283185 4.299022 0.000000
0.000000 4.629715 0.000000
0.330694 4.629715 0.000000
0.661388 4.629715 0.000000
0.992082 4.629715 0.000000
1.322776 4.629715 0.000000
1.653470 4.629715 0.000000
1.984164 4.629715 0.000000
2.314858 4.629715 0.000000
2.645552 4.629715 0.000000
2.976246 4.629715 0.000000
3.306940 4.629715 0.000000
3.637634 4.629715 0.000000
3.968328 4.629715 0.000000
4.299022 4.629715 0.000000
4.629715 4.629715 0.000000
4.960409 4.629715 0.000000
5.291103 4.629715 0.000000
5.621797 4.629715 0.000000
5.952491 4.629715 0.000000
6.283185 4.629715 0.000000
0.000000 4.960409 0.000000
0.330694 4.960409 0.000000
0.661388 4.960409 0.000000
0.992082 4.960409 0.000000
1.322776 4.960409 0.000000
1.653470 4.960409 0.000000
1.984164 4.960409 0.000000
2.314858 4.960409 0.000000
2.645552 4.960409 0.000000
2.976246 4.960409 0.000000
3.306940 4.960409 0.000000
3.637634 4.960409 0.000000
3.968328 4.960409 0.000000
4.299022 4.960409 0.000000
4.629715 4.960409 0.000000
4.960409 4.960409 0.000000
5.291103 4.960409 0.000000
5.621797 4.960409 0.000000
5.952491 4.960409 0.000000
6.283185 4.960409 0.000000
0.000000 5.291103 0.000000
0.330694 5.291103 0.000000
0.661388 5.291103 0.000000
0.992082 5.291103 0.000000
1.322776 5.291103 0.000000
1.653470 5.291103 0.000000
1.984164 5.291103 0.000000
2.314858 5.291103 0.000000
2.645552 5.291103 0.000000
2.976246 5.291103 0.000000
3.306940 5.291103 0.000000
3.637634 5.291103 0.000000
3.968328 5.291103 0.000000
4.299022 5.291103 0.000000
4.629715 5.291103 0.000000
4.960409 5.291103 0.000000
5.291103 5.291103 0.000000
5.621797 5.291103 0.000000
5.952491 5.291103 0.000000
6.283185 5.291103 0.000000
0.000000 5.621797 0.000000
0.330694 5.621797 0.000000
0.661388 5.621797 0.000000
0.992082 5.621797 0.000000
1.322776 5.621797 0.000000
1.653470 5.621797 0.000000
1.984164 5.621797 0.000000
2.314858 5.621797 0.000000
2.645552 5.621797 0.000000
2.976246 5.621797 0.000000
3.306940 5.621797 0.000000
3.637634 5.621797 0.000000
3.968328 5.621797 0.000000
4.299022 5.621797 0.000000
4.629715 5.621797 0.000000
4.960409 5.621797 0.000000
5.291103 5.621797 0.000000
5.621797 5.621797 0.000000
5.952491 5.621797 0.000000
6.283185 5.621797 0.000000
0.000000 5.952491 0.000000
0.330694 5.952491 0.000000
0.661388 5.952491 0.000000
0.992082 5.952491 0.000000
1.322776 5.952491 0.000000
1.653470 5.952491 0.000000
1.984164 5.952491 0.000000
2.314858 5.952491 0.000000
2.645552 5.952491 0.000000
2.976246 5.952491 0.000000
3.306940 5.952491 0.000000
3.637634 5.952491 0.000000
3.968328 5.952491 0.000000
4.299022 5.952491 0.000000
4.629715 5.952491 0.000000
4.960409 5.952491 0.000000
5.291103 5.952491 0.000000
5.621797 5.952491 0.000000
5.952491 5.952491 0.000000
6.283185 5.952491 0.000000
0.000000 6.283185 0.000000
0.330694 6.283185 0.000000
0.661388 6.283185 0.000000
0.992082 6.283185 0.000000
1.322776 6.283185 0.000000
1.653470 6.283185 0.000000
1.984164 6.283185 0.000000
2.314858 6.283185 0.000000
2.645552 6.283185 0.000000
2.976246 6.283185 0.000000
3.306940 6.283185 0.000000
3.637634 6.283185 0.000000
3.968328 6.283185 0.000000
4.299022 6.283185 0.000000
4.629715 6.283185 0.000000
4.960409 6.283185 0.000000
5.291103 6.283185 0.000000
5.621797 6.283185 0.000000
5.952491 6.283185 0.000000
6.283185 6.283185 0.000000
POLYGONS 722 2888
3 0 1 21
3 0 21 20
3 1 2 22
3 1 22 21
3 2 3 23
3 2 23 22
3 3 4 24
3 3 24 23
3 4 5 25
3 4 25 24
3 5 6 26
3 5 26 25
3 6 7 27
3 6 27 26
3 7 8 28
3 7 28 27
3 8 9 29
3 8 29 28
3 9 10 30
3 9 30 29
3 10 11 31
3 10 31 30
3 11 12 32
3 11 32 31
3 12 13 33
3 12 33 32
3 13 14 34
3 13 34 33
3 14 15 35
3 14 35 34
3 15 16 36
3 15 36 35
3 16 17 37
3 16 37 36
3 17 18 38
3 17 38 37
3 18 19 39
3 18 39 38
3 20 21 41
3 20 41 40
3 21 22 42
3 21 42 41
3 22 23 43
3 22 43 42
3 23 24 44
3 23 44 43
3 24 25 45
3 24 45 44
3 25 26 46
3 25 46 45
3 26 27 47
3 26 47 46
3 27 28 48
3 27 48 47
3 28 29 49
3 28 49 48
3 29 30 50
3 29 50 49
3 30 31 51
3 30 51 50
3 31 32 52
3 31 52 51
3 32 33 53
3 32 53 52
3 33 34 54
3 33 54 53
3 34 35 55
3 34 55 54
3 35 36 56
3 35 56 55
3 36 37 57
3 36 57 56
3 37 38 58
3 37 58 57
3 38 39 59
3 38 59 58
3 40 41 61
3 40 61 60
3 41 42 62
3 41 62 61
3 42 43 63
3 42 63 62
3 43 44 64
3 43 64 63
3 44 45 65
3 44 65 64
3 45 46 66
3 45 66 65
3 46 47 67
3 46 67 66
3 47 48 68
3 47 68 67
3 48 49 69
3 48 69 68
3 49 50 70
3 49 70 69
3 50 51 71
3 50 71 70
3 51 52 72
3 51 72 71
3 52 53 73
3 52 73 72
3 53 54 74
3 53 74 73
3 54 55 75
3 54 75 74
3 55 56 76
3 55 76 75
3 56 57 77
3 56 77 76
3 57 58 78
3 57 78 77
3 58 59 79
3 58 79 78
3 60 61 81
3 60 81 80
3 61 62 82
3 61 82 81
3 62 63 83
3 62 83 82
3 63 64 84
3 63 84 83
3 64 65 85
3 64 85 84
3 65 66 86
3 65 86 85
3 66 67 87
3 66 87 86
3 67 68 88
3 67 88 87
3 68 69 89
3 68 89 88
3 69 70 90
3 69 90 89
3 70 71 91
3 70 91 90
3 71 72 92
3 71 92 91
3 72 73 93
3 72 93 92
3 73 74 94
3 73 94 93
3 74 75 95
3 74 95 94
3 75 76 96
3 75 96 95
3 76 77 97
3 76 97 96
3 77 78 98
3 77 98 97
3 78 79 99
3 78 99 98
3 80 81 101
3 80 101 100
3 81 82 102
3 81 102 101
3 82 83 103
3 82 103 102
3 83 84 104
3 83 104 103
3 84 85 105
3 84 105 104
3 85 86 106
3 85 106 105
3 86 87 107
3 86 107 106
3 87 88 108
3 87 108 107
3 88 89 109
3 88 109 108
3 89 90 110
3 89 110 109
3 90 91 111
3 90 111 110
3 91 92 112
3 91 112 111
3 92 93 113
3 92 113 112
3 93 94 114
3 93 114 113
3 94 95 115
3 94 115 114
3 95 96 116
3 95 116 115
3 96 97 117
3 96 117 116
3 97 98 118
3 97 118 117
3 98 99 119
3 98 119 118
3 100 101 121
3 100 121 120
3 101 102 122
3 101 122 121
3 102 103 123
3 102 123 122
3 103 104 124
3 103 124 123
3 104 105 125
3 104 125 124
3 105 106 126
3 105 126 125
3 106 107 127
3 106 127 126
3 107 108 128
3 107 128 127
3 108 109 129
3 108 129 128
3 109 110 130
3 109 130 129
3 110 111 131
3 110 131 130
3 111 112 132
3 111 132 131
3 112 113 133
3 112 133 132
3 113 114 134
3 113 134 133
3 114 115 135
3 114 135 134
3 115 116 136
3 115 136 135
3 116 117 137
3 116 137 136
3 117 118 138
3 117 138 137
3 118 119 139
3 118 139 138
3 120 121 141
3 120 141 140
3 121 122 142
3 121 142 141
3 122 123 143
3 122 143 142
3 123 124 144
3 123 144 143
3 124 125 145
3 124 145 144
3 125 126 146
3 125 146 145
3 126 127 147
3 126 147 146
3 127 128 148
3 127 148 147
3 128 129 149
3 128 149 148
3 129 130 150
3 129 150 149
3 130 131 151
3 130 151 150
3 131 132 152
3 131 152 151
3 132 133 153
3 132 153 152
3 133 134 154
3 133 154 153
3 134 135 155
3 134 155 154
3 135 136 156
3 135 156 155
3 136 137 157
3 136 157 156
3 137 138 158
3 137 158 157
3 138 139 159
3 138 159 158
3 140 141 161
3 140 161 160
3 141 142 162
3 141 162 161
3 142 143 163
3 142 163 162
3 143 144 164
3 143 164 163
3 144 145 165
3 144 165 164
3 145 146 166
3 145 166 165
3 146 147 167
3 146 167 166
3 147 148 168
3 147 168 167
3 148 149 169
3 148 169 168
3 149 150 170
3 149 170 169
3 150 151 171
3 150 171 170
3 151 152 172
3 151 172 171
3 152 153 173
3 152 173 172
3 153 154 174
3 153 174 173
3 154 155 175
3 154 175 174
3 155 156 176
3 155 176 175
3 156 157 177
3 156 177 176
3 157 158 178
3 157 178 177
3 158 159 179
3 158 179 178
3 160 161 181
3 160 181 180
3 161 162 182
3 161 182 181
3 162 163 183
3 162 183 182
3 163 164 184
3 163 184 183
3 164 165 185
3 164 185 184
3 165 166 186
3 165 186 185
3 166 167 187
3 166 187 186
3 167 168 188
3 167 188 187
3 168 169 189
3 168 189 188
3 169 170 190
3 169 190 189
3 170 171 191
3 170 191 190
3 171 172 192
3 171 192 191
3 172 173 193
3 172 193 192
3 173 174 194
3 173 194 193
3 174 175 195
3 174 195 194
3 175 176 196
3 175 196 195
3 176 177 197
3 176 197 196
3 177 178 198
3 177 198 197
3 178 179 199
3 178 199 198
3 180 181 201
3 180 201 200
3 181 182 202
3 181 202 201
3 182 183 203
3 182 203 202
3 183 184 204
3 183 204 203
3 184 185 205
3 184 205 204
3 185 186 206
3 185 206 205
3 186 187 207
3 186 207 206
3 187 188 208
3 187 208 207
3 188 189 209
3 188 209 208
3 189 190 210
3 189 210 209
3 190 191 211
3 190 211 210
3 191 192 212
3 191 212 211
3 192 193 213
3 192 213 212
3 193 194 214
3 193 214 213
3 194 195 215
3 194 215 214
3 195 196 216
3 195 216 215
3 196 197 217
3 196 217 216
3 197 198 218
3 197 218 217
3 198 199 219
3 198 219 218
3 200 201 221
3 200 221 220
3 201 202 222
3 201 222 221
3 202 203 223
3 202 223 222
3 203 204 224
3 203 224 223
3 204 205 225
3 204 225 224
3 205 206 226
3 205 226 225
3 206 207 227
3 206 227 226
3 207 208 228
3 207 228 227
3 208 209 229
3 208 229 228
3 209 210 230
3 209 230 229
3 210 211 231
3 210 231 230
3 211 212 232
3 211 232 231
3 212 213 233
3 212 233 232
3 213 214 234
3 213 234 233
3 214 215 235
3 214 235 234
3 215 216 236
3 215 236 235
3 216 217 237
3 216 237 236
3 217 218 238
3 217 238 237
3 218 219 239
3 218 239 238
3 220 221 241
3 220 241 240
3 221 222 242
3 221 242 241
3 222 223 243
3 222 243 242
3 223 224 244
3 223 244 243
3 224 225 245
3 224 245 244
3 225 226 246
3 225 246 245
3 226 227 247
3 226 247 246
3 227 228 248
3 227 248 247
3 228 229 249
3 228 249 248
3 229 230 250
3 229 250 249
3 230 231 251
3 230 251 250
3 231 232 252
3 231 252 251
3 232 233 253
3 232 253 252
3 233 234 254
3 233 254 253
3 234 235 255
3 234 255 254
3 235 236 256
3 235 256 255
3 236 237 257
3 236 257 256
3 237 238 258
3 237 258 257
3 238 239 259
3 238 259 258
3 240 241 261
3 240 261 260
3 241 242 262
3 241 262 261
3 242 243 263
3 242 263 262
3 243 244 264
3 243 264 263
3 244 245 265
3 244 265 264
3 245 246 266
3 245 266 265
3 246 247 267
3 246 267 266
3 247 248 268
3 247 268 267
3 248 249 269
3 248 269 268
3 249 250 270
3 249 270 269
3 250 251 271
3 250 271 270
3 251 252 272
3 251 272 271
3 252 253 273
3 252 273 272
3 253 254 274
3 253 274 273
3 254 255 275
3 254 275 274
3 255 256 276
3 255 276 275
3 256 257 277
3 256 277 276
3 257 258 278
3 257 278 277
3 258 259 279
3 258 279 278
3 260 261 281
3 260 281 280
3 261 262 282
3 261 282 281
3 262 263 283
3 262 283 282
3 263 264 284
3 263 284 283
3 264 265 285
3 264 285 284
3 265 266 286
3 265 286 285
3 266 267 287
3 266 287 286
3 267 268 288
3 267 288 287
3 268 269 289
3 268 289 288
3 269 270 290
3 269 290 289
3 270 271 291
3 270 291 290
3 271 272 292
3 271 292 291
3 272 273 293
3 272 293 292
3 273 274 294
3 273 294 293
3 274 275 295
3 274 295 294
3 275 276 296
3 275 296 295
3 276 277 297
3 276 297 296
3 277 278 298
3 277 298 297
3 278 279 299
3 278 299 298
3 280 281 301
3 280 301 300
3 281 282 302
3 281 302 301
3 282 283 303
3 282 303 302
3 283 284 304
3 283 304 303
3 284 285 305
3 284 305 304
3 285 286 306
3 285 306 305
3 286 287 307
3 286 307 306
3 287 288 308
3 287 308 307
3 288 289 309
3 288 309 308
3 289 290 310
3 289 310 309
3 290 291 311
3 290 311 310
3 291 292 312
3 291 312 311
3 292 293 313
3 292 313 312
3 293 294 314
3 293 314 313
3 294 295 315
3 294 315 314
3 295 296 316
3 295 316 315
3 296 297 317
3 296 317 316
3 297 298 318
3 297 318 317
3 298 299 319
3 298 319 318
3 300 301 321
3 300 321 320
3 301 302 322
3 301 322 321
3 302 303 323
3 302 323 322
3 303 304 324
3 303 324 323
3 304 305 325
3 304 325 324
3 305 306 326
3 305 326 325
3 306 307 327
3 306 327 326
3 307 308 328
3 307 328 327
3 308 309 329
3 308 329 328
3 309 310 330
3 309 330 329
3 310 311 331
3 310 331 330
3 311 312 332
3 311 332 331
3 312 313 333
3 312 333 332
3 313 314 334
3 313 334 333
3 314 315 335
3 314 335 334
3 315 316 336
3 315 336 335
3 316 317 337
3 316 337 336
3 317 318 338
3 317 338 337
3 318 319 339
3 318 339 338
3 320 321 341
3 320 341 340
3 321 322 342
3 321 342 341
3 322 323 343
3 322 343 342
3 323 324 344
3 323 344 343
3 324 325 345
3 324 345 344
3 325 326 346
3 325 346 345
3 326 327 347
3 326 347 346
3 327 328 348
3 327 348 347
3 328 329 349
3 328 349 348
3 329 330 350
3 329 350 349
3 330 331 351
3 330 351 350
3 331 332 352
3 331 352 351
3 332 333 353
3 332 353 352
3 333 334 354
3 333 354 353
3 334 335 355
3 334 355 354
3 335 336 356
3 335 356 355
3 336 337 357
3 336 357 356
3 337 338 358
3 337 358 357
3 338 339 359
3 338 359 358
3 340 341 361
3 340 361 360
3 341 342 362
3 341 362 361
3 342 343 363
3 342 363 362
3 343 344 364
3 343 364 363
3 344 345 365
3 344 365 364
3 345 346 366
3 345 366 365
3 346 347 367
3 346 367 366
3 347 348 368
3 347 368 367
3 348 349 369
3 348 369 368
3 349 350 370
3 349 370 369
3 350 351 371
3 350 371 370
3 351 352 372
3 351 372 371
3 352 353 373
3 352 373 372
3 353 354 374
3 353 374 373
3 354 355 375
3 354 375 374
3 355 356 376
3 355 376 375
3 356 357 377
3 356 377 376
3 357 358 378
3 357 378 377
3 358 359 379
3 358 379 378
3 360 361 381
3 360 381 380
3 361 362 382
3 361 382 381
3 362 363 383
3 362 383 382
3 363 364 384
3 363 384 383
3 364 365 385
3 364 385 384
3 365 366 386
3 365 386 385
3 366 367 387
3 366 387 386
3 367 368 388
3 367 388 387
3 368 369 389
3 368 389 388
3 369 370 390
3 369 390 389
3 370 371 391
3 370 391 390
3 371 372 392
3 371 392 391
3 372 373 393
3 372 393 392
3 373 374 394
3 373 394 393
3 374 375 395
3 374 395 394
3 375 376 396
3 375 396 395
3 376 377 397
3 376 397 396
3 377 378 398
3 377 398 397
3 378 379 399
3 378 399 398
POINT_DATA 400
SCALARS solution_0 double
LOOKUP_TABLE defaul
0.000000
0.005481
0.022074
0.050190
0.090378
0.143090
0.208265
0.284514
0.366993
0.438469
0.438469
0.366993
0.284514
0.208265
0.143090
0.090378
0.050190
0.022074
0.005481
0.000000
0.002736
0.013682
0.035832
0.069632
0.115517
0.173574
0.242911
0.320364
0.397102
0.445374
0.408890
0.328222
0.247177
0.175730
0.116525
0.070048
0.035971
0.013711
0.002738
0.002736
0.010958
0.027225
0.054679
0.093677
0.144326
0.205959
0.276178
0.348971
0.410352
0.425026
0.367136
0.287401
0.212021
0.147357
0.095056
0.055221
0.027390
0.010990
0.005576
0.010958
0.024663
0.045879
0.078027
0.121169
0.174736
0.236765
0.302647
0.363185
0.400702
0.385317
0.322071
0.248697
0.181242
0.124419
0.079487
0.046441
0.024834
0.014176
0.014145
0.024663
0.043664
0.069046
0.104645
0.149920
0.203180
0.260709
0.315756
0.357617
0.369898
0.338527
0.278958
0.214596
0.156273
0.107864
0.070511
0.044243
0.028706
0.023536
0.028525
0.043664
0.067290
0.095357
0.132165
0.176217
0.224449
0.271725
0.310858
0.332805
0.327405
0.292397
0.240740
0.186742
0.138228
0.098539
0.068803
0.049152
0.039367
0.039202
0.048526
0.067290
0.093957
0.122188
0.156680
0.194912
0.232986
0.265974
0.288597
0.295479
0.282412
0.250927
0.209285
0.166408
0.128091
0.097234
0.074977
0.061576
0.056940
0.060910
0.073331
0.093957
0.120696
0.145388
0.173095
0.200974
0.225786
0.244526
0.254621
0.253751
0.240542
0.216419
0.185971
0.154670
0.126726
0.104600
0.089422
0.081554
0.080998
0.087595
0.101035
0.120696
0.143059
0.159901
0.176902
0.192217
0.204427
0.212604
0.215979
0.213673
0.205017
0.190418
0.171879
0.152386
0.134754
0.120944
0.112021
0.108408
0.110132
0.116932
0.128239
0.143059
0.156006
0.161719
0.166684
0.170723
0.173969
0.176575
0.178442
0.179095
0.177803
0.173995
0.167770
0.160081
0.152361
0.145960
0.141803
0.140322
0.141516
0.145018
0.150145
0.156006
0.156006
0.150145
0.145018
0.141516
0.140322
0.141803
0.145960
0.152361
0.160081
0.167770
0.173995
0.177803
0.179095
0.178442
0.176575
0.173969
0.170723
0.166684
0.161719
0.156006
0.143059
0.128239
0.116932
0.110132
0.108408
0.112021
0.120944
0.134754
0.152386
0.171879
0.190418
0.205017
0.213673
0.215979
0.212604
0.204427
0.192217
0.176902
0.159901
0.143059
0.120696
0.101035
0.087595
0.080998
0.081554
0.089422
0.104600
0.126726
0.154670
0.185971
0.216419
0.240542
0.253751
0.254621
0.244526
0.225786
0.200974
0.173095
0.145388
0.120696
0.093957
0.073331
0.060910
0.056940
0.061576
0.074977
0.097234
0.128091
0.166408
0.209285
0.250927
0.282412
0.295479
0.288597
0.265974
0.232986
0.194912
0.156680
0.122188
0.093957
0.067290
0.048526
0.039202
0.039367
0.049152
0.068803
0.098539
0.138228
0.186742
0.240740
0.292397
0.327405
0.332805
0.310858
0.271725
0.224449
0.176217
0.132165
0.095357
0.067290
0.043664
0.028525
0.023536
0.028706
0.044243
0.070511
0.107864
0.156273
0.214596
0.278958
0.338527
0.369898
0.357617
0.315756
0.260709
0.203180
0.149920
0.104645
0.069046
0.043664
0.024663
0.014145
0.014176
0.024834
0.046441
0.079487
0.124419
0.181242
0.248697
0.322071
0.385317
0.400702
0.363185
0.302647
0.236765
0.174736
0.121169
0.078027
0.045879
0.024663
0.010958
0.005576
0.010990
0.027390
0.055221
0.095056
0.147357
0.212021
0.287401
0.367136
0.425026
0.410352
0.348971
0.276178
0.205959
0.144326
0.093677
0.054679
0.027225
0.010958
0.002736
0.002738
0.013711
0.035971
0.070048
0.116525
0.175730
0.247177
0.328222
0.408890
0.445374
0.397102
0.320364
0.242911
0.173574
0.115517
0.069632
0.035832
0.013682
0.002736
0.000000
0.005481
0.022074
0.050190
0.090378
0.143090
0.208265
0.284514
0.366993
0.438469
0.438469
0.366993
0.284514
0.208265
0.143090
0.090378
0.050190
0.022074
0.005481
0.000000
SCALARS solution_1 double
LOOKUP_TABLE defaul
0.561936
0.563125
0.566622
0.572186
0.579338
0.587209
0.594244
0.597522
0.591326
0.570479
0.570479
0.591326
0.597522
0.594244
0.587209
0.579338
0.572186
0.566622
0.563125
0.561936
0.561027
0.562576
0.566619
0.573096
0.581724
0.591816
0.601783
0.607471
0.597632
0.566857
0.567558
0.582359
0.588074
0.586817
0.581937
0.575743
0.569746
0.564919
0.561883
0.561027
0.558510
0.560400
0.565041
0.572584
0.582997
0.595799
0.609038
0.615019
0.593662
0.559617
0.562838
0.574237
0.579718
0.579697
0.576255
0.571250
0.566094
0.561804
0.559103
0.558510
0.554958
0.557147
0.562423
0.571178
0.583622
0.599220
0.614197
0.613394
0.580401
0.555136
0.558875
0.567678
0.572657
0.573253
0.570706
0.566484
0.561876
0.557910
0.555391
0.554958
0.551162
0.553615
0.559586
0.569691
0.584165
0.601455
0.613355
0.601184
0.569330
0.553484
0.556203
0.562848
0.567161
0.567993
0.565964
0.562210
0.557893
0.554043
0.551542
0.551162
0.547943
0.550669
0.557433
0.568915
0.584732
0.600766
0.605128
0.587758
0.563971
0.553482
0.554914
0.559838
0.563500
0.564394
0.562664
0.559157
0.554920
0.550994
0.548357
0.547943
0.545967
0.549011
0.556607
0.569054
0.584403
0.596021
0.594271
0.578760
0.562205
0.554483
0.554906
0.558590
0.561781
0.562750
0.561251
0.557866
0.553548
0.549377
0.546471
0.545967
0.545529
0.548860
0.556974
0.569170
0.581872
0.588712
0.585065
0.573594
0.562025
0.555977
0.555828
0.558792
0.561841
0.563080
0.561893
0.558601
0.554082
0.549500
0.546183
0.545529
0.546297
0.549585
0.557334
0.567774
0.577094
0.581120
0.578163
0.570374
0.562191
0.557391
0.557095
0.559871
0.563244
0.565129
0.564485
0.561330
0.556471
0.551241
0.547284
0.546297
0.547226
0.549876
0.556337
0.564462
0.571291
0.574359
0.572820
0.567815
0.561976
0.558180
0.558043
0.561128
0.565401
0.568485
0.568743
0.565745
0.560248
0.553924
0.548922
0.547226
0.547226
0.548922
0.553924
0.560248
0.565745
0.568743
0.568485
0.565401
0.561128
0.558043
0.558180
0.561976
0.567815
0.572820
0.574359
0.571291
0.564462
0.556337
0.549876
0.547226
0.546297
0.547284
0.551241
0.556471
0.561330
0.564485
0.565129
0.563244
0.559871
0.557095
0.557391
0.562191
0.570374
0.578163
0.581120
0.577094
0.567774
0.557334
0.549585
0.546297
0.545529
0.546183
0.549500
0.554082
0.558601
0.561893
0.563080
0.561841
0.558792
0.555828
0.555977
0.562025
0.573594
0.585065
0.588712
0.581872
0.569170
0.556974
0.548860
0.545529
0.545967
0.546471
0.549377
0.553548
0.557866
0.561251
0.562750
0.561781
0.558590
0.554906
0.554483
0.562205
0.578760
0.594271
0.596021
0.584403
0.569054
0.556607
0.549011
0.545967
0.547943
0.548357
0.550994
0.554920
0.559157
0.562664
0.564394
0.563500
0.559838
0.554914
0.553482
0.563971
0.587758
0.605128
0.600766
0.584732
0.568915
0.557433
0.550669
0.547943
0.551162
0.551542
0.554043
0.557893
0.562210
0.565964
0.567993
0.567161
0.562848
0.556203
0.553484
0.569330
0.601184
0.613355
0.601455
0.584165
0.569691
0.559586
0.553615
0.551162
0.554958
0.555391
0.557910
0.561876
0.566484
0.570706
0.573253
0.572657
0.567678
0.558875
0.555136
0.580401
0.613394
0.614197
0.599220
0.583622
0.571178
0.562423
0.557147
0.554958
0.558510
0.559103
0.561804
0.566094
0.571250
0.576255
0.579697
0.579718
0.574237
0.562838
0.559617
0.593662
0.615019
0.609038
0.595799
0.582997
0.572584
0.565041
0.560400
0.558510
0.561027
0.561883
0.564919
0.569746
0.575743
0.581937
0.586817
0.588074
0.582359
0.567558
0.566857
0.597632
0.607471
0.601783
0.591816
0.581724
0.573096
0.566619
0.562576
0.561027
0.561936
0.563125
0.566622
0.572186
0.579338
0.587209
0.594244
0.597522
0.591326
0.570479
0.570479
0.591326
0.597522
0.594244
0.587209
0.579338
0.572186
0.566622
0.563125
0.561936
