# vtk DataFile Version 2.0
thi shit
ASCII
DATASET POLYDATA
POINTS 100 double
0.000000 0.000000 0.000000
0.063467 0.000000 0.000000
0.126933 0.000000 0.000000
0.190400 0.000000 0.000000
0.253866 0.000000 0.000000
0.317333 0.000000 0.000000
0.380799 0.000000 0.000000
0.444266 0.000000 0.000000
0.507732 0.000000 0.000000
0.571199 0.000000 0.000000
0.634665 0.000000 0.000000
0.698132 0.000000 0.000000
0.761598 0.000000 0.000000
0.825065 0.000000 0.000000
0.888531 0.000000 0.000000
0.951998 0.000000 0.000000
1.015464 0.000000 0.000000
1.078931 0.000000 0.000000
1.142397 0.000000 0.000000
1.205864 0.000000 0.000000
1.269330 0.000000 0.000000
1.332797 0.000000 0.000000
1.396263 0.000000 0.000000
1.459730 0.000000 0.000000
1.523196 0.000000 0.000000
1.586663 0.000000 0.000000
1.650129 0.000000 0.000000
1.713596 0.000000 0.000000
1.777063 0.000000 0.000000
1.840529 0.000000 0.000000
1.903996 0.000000 0.000000
1.967462 0.000000 0.000000
2.030929 0.000000 0.000000
2.094395 0.000000 0.000000
2.157862 0.000000 0.000000
2.221328 0.000000 0.000000
2.284795 0.000000 0.000000
2.348261 0.000000 0.000000
2.411728 0.000000 0.000000
2.475194 0.000000 0.000000
2.538661 0.000000 0.000000
2.602127 0.000000 0.000000
2.665594 0.000000 0.000000
2.729060 0.000000 0.000000
2.792527 0.000000 0.000000
2.855993 0.000000 0.000000
2.919460 0.000000 0.000000
2.982926 0.000000 0.000000
3.046393 0.000000 0.000000
3.109859 0.000000 0.000000
3.173326 0.000000 0.000000
3.236792 0.000000 0.000000
3.300259 0.000000 0.000000
3.363725 0.000000 0.000000
3.427192 0.000000 0.000000
3.490659 0.000000 0.000000
3.554125 0.000000 0.000000
3.617592 0.000000 0.000000
3.681058 0.000000 0.000000
3.744525 0.000000 0.000000
3.807991 0.000000 0.000000
3.871458 0.000000 0.000000
3.934924 0.000000 0.000000
3.998391 0.000000 0.000000
4.061857 0.000000 0.000000
4.125324 0.000000 0.000000
4.188790 0.000000 0.000000
4.252257 0.000000 0.000000
4.315723 0.000000 0.000000
4.379190 0.000000 0.000000
4.442656 0.000000 0.000000
4.506123 0.000000 0.000000
4.569589 0.000000 0.000000
4.633056 0.000000 0.000000
4.696522 0.000000 0.000000
4.759989 0.000000 0.000000
4.823455 0.000000 0.000000
4.886922 0.000000 0.000000
4.950388 0.000000 0.000000
5.013855 0.000000 0.000000
5.077321 0.000000 0.000000
5.140788 0.000000 0.000000
5.204254 0.000000 0.000000
5.267721 0.000000 0.000000
5.331188 0.000000 0.000000
5.394654 0.000000 0.000000
5.458121 0.000000 0.000000
5.521587 0.000000 0.000000
5.585054 0.000000 0.000000
5.648520 0.000000 0.000000
5.711987 0.000000 0.000000
5.775453 0.000000 0.000000
5.838920 0.000000 0.000000
5.902386 0.000000 0.000000
5.965853 0.000000 0.000000
6.029319 0.000000 0.000000
6.092786 0.000000 0.000000
6.156252 0.000000 0.000000
6.219719 0.000000 0.000000
6.283185 0.000000 0.000000
POLYGONS 99 297
2 0 1
2 1 2
2 2 3
2 3 4
2 4 5
2 5 6
2 6 7
2 7 8
2 8 9
2 9 10
2 10 11
2 11 12
2 12 13
2 13 14
2 14 15
2 15 16
2 16 17
2 17 18
2 18 19
2 19 20
2 20 21
2 21 22
2 22 23
2 23 24
2 24 25
2 25 26
2 26 27
2 27 28
2 28 29
2 29 30
2 30 31
2 31 32
2 32 33
2 33 34
2 34 35
2 35 36
2 36 37
2 37 38
2 38 39
2 39 40
2 40 41
2 41 42
2 42 43
2 43 44
2 44 45
2 45 46
2 46 47
2 47 48
2 48 49
2 49 50
2 50 51
2 51 52
2 52 53
2 53 54
2 54 55
2 55 56
2 56 57
2 57 58
2 58 59
2 59 60
2 60 61
2 61 62
2 62 63
2 63 64
2 64 65
2 65 66
2 66 67
2 67 68
2 68 69
2 69 70
2 70 71
2 71 72
2 72 73
2 73 74
2 74 75
2 75 76
2 76 77
2 77 78
2 78 79
2 79 80
2 80 81
2 81 82
2 82 83
2 83 84
2 84 85
2 85 86
2 86 87
2 87 88
2 88 89
2 89 90
2 90 91
2 91 92
2 92 93
2 93 94
2 94 95
2 95 96
2 96 97
2 97 98
2 98 99
CELL_DATA 99
SCALARS Pot_0 double
LOOKUP_TABLE defaul
0.000000
0.000000
0.000000
0.000000
0.000000
0.000000
0.000000
0.000000
0.000000
0.000000
0.000000
0.000000
0.000000
0.000000
0.000000
0.000000
0.000000
0.000000
0.000000
0.000000
0.000000
0.000000
0.000000
0.000000
0.000000
0.000000
0.000000
0.000000
0.000000
0.000000
0.000000
0.000000
0.000000
0.000000
0.000000
0.000000
0.000000
0.000000
0.000000
0.000000
0.000000
0.000000
0.000000
0.000000
0.000000
0.000000
0.000000
0.000000
0.000000
0.000000
0.000000
0.000000
0.000000
0.000000
0.000000
0.000000
0.000000
0.000000
0.000000
0.000000
0.000000
0.000000
0.000000
0.000000
0.000000
0.000000
0.000000
0.000000
0.000000
0.000000
0.000000
0.000000
0.000000
0.000000
0.000000
0.000000
0.000000
0.000000
0.000000
0.000000
0.000000
0.000000
0.000000
0.000000
0.000000
0.000000
0.000000
0.000000
0.000000
0.000000
0.000000
0.000000
0.000000
0.000000
0.000000
0.000000
0.000000
0.000000
0.000000
POINT_DATA 100
SCALARS Psi_0 double
LOOKUP_TABLE defaul
0.000000
-0.017902
-0.035786
-0.053634
-0.071429
-0.089150
-0.106783
-0.124307
-0.141708
-0.158964
-0.176062
-0.192980
-0.209707
-0.226220
-0.242508
-0.258548
-0.274332
-0.289836
-0.305052
-0.319956
-0.334543
-0.348788
-0.362687
-0.376215
-0.389371
-0.402128
-0.414487
-0.426422
-0.437927
-0.448998
-0.459611
-0.469767
-0.479443
-0.488644
-0.497346
-0.505554
-0.513245
-0.520428
-0.527078
-0.533206
-0.538789
-0.543838
-0.548330
-0.552279
-0.555663
-0.558497
-0.560759
-0.562466
-0.563597
-0.564169
-0.564165
-0.563602
-0.562462
-0.560765
-0.558494
-0.555660
-0.552277
-0.548328
-0.543836
-0.538787
-0.533205
-0.527077
-0.520427
-0.513245
-0.505554
-0.497346
-0.488645
-0.479444
-0.469768
-0.459612
-0.449000
-0.437929
-0.426424
-0.414482
-0.402130
-0.389367
-0.376218
-0.362684
-0.348791
-0.334540
-0.319959
-0.305050
-0.289839
-0.274331
-0.258547
-0.242507
-0.226218
-0.209706
-0.192979
-0.176061
-0.158963
-0.141707
-0.124307
-0.106783
-0.089150
-0.071428
-0.053634
-0.035786
-0.017902
0.000000
SCALARS Psi_1 double
LOOKUP_TABLE defaul
0.000000
0.035795
0.071447
0.106810
0.141744
0.176105
0.209760
0.242567
0.274401
0.305126
0.334627
0.362775
0.389469
0.414588
0.438044
0.459729
0.479570
0.497473
0.513381
0.527213
0.538930
0.548469
0.555809
0.560901
0.563744
0.564307
0.562608
0.558634
0.552411
0.543972
0.533334
0.520557
0.505676
0.488766
0.469881
0.449111
0.426525
0.402229
0.376307
0.348876
0.320034
0.289909
0.258611
0.226277
0.193027
0.159004
0.124337
0.089173
0.053647
0.017907
-0.017906
-0.053647
-0.089172
-0.124338
-0.159002
-0.193026
-0.226276
-0.258611
-0.289908
-0.320034
-0.348876
-0.376308
-0.402230
-0.426527
-0.449112
-0.469883
-0.488768
-0.505678
-0.520559
-0.533337
-0.543975
-0.552414
-0.558637
-0.562603
-0.564311
-0.563739
-0.560905
-0.555804
-0.548474
-0.538927
-0.527218
-0.513378
-0.497479
-0.479568
-0.459727
-0.438042
-0.414585
-0.389467
-0.362773
-0.334625
-0.305124
-0.274400
-0.242565
-0.209759
-0.176104
-0.141743
-0.106808
-0.071446
-0.035795
0.000000
SCALARS Psi_2 double
LOOKUP_TABLE defaul
0.000000
0.053670
0.106855
0.159070
0.209847
0.258721
0.305255
0.349021
0.389631
0.426707
0.459924
0.488970
0.513595
0.533561
0.548703
0.558867
0.563979
0.563975
0.558872
0.548699
0.533566
0.513592
0.488975
0.459922
0.426712
0.389630
0.349026
0.305255
0.258720
0.209847
0.159069
0.106854
0.053668
-0.000001
-0.053672
-0.106856
-0.159072
-0.209849
-0.258723
-0.305258
-0.349024
-0.389633
-0.426709
-0.459927
-0.488972
-0.513597
-0.533563
-0.548705
-0.558869
-0.563981
-0.563977
-0.558874
-0.548701
-0.533567
-0.513593
-0.488968
-0.459922
-0.426704
-0.389629
-0.349018
-0.305253
-0.258718
-0.209845
-0.159067
-0.106852
-0.053667
0.000002
0.053672
0.106857
0.159072
0.209849
0.258723
0.305257
0.349022
0.389632
0.426707
0.459925
0.488970
0.513595
0.533560
0.548702
0.558866
0.563978
0.563974
0.558862
0.548697
0.533555
0.513590
0.488965
0.459920
0.426702
0.389627
0.349017
0.305253
0.258718
0.209845
0.159068
0.106854
0.053669
0.000000
SCALARS Psi_3 double
LOOKUP_TABLE defaul
0.000000
-0.071518
-0.141885
-0.209969
-0.274676
-0.334960
-0.389858
-0.438479
-0.480050
-0.513890
-0.539469
-0.556360
-0.564307
-0.563165
-0.552971
-0.533870
-0.506188
-0.470353
-0.426957
-0.376684
-0.320357
-0.258869
-0.193221
-0.124460
-0.053700
0.017927
0.089265
0.159165
0.226505
0.290203
0.349227
0.402637
0.449563
0.489262
0.521081
0.544523
0.559196
0.564879
0.561465
0.549025
0.527742
0.497977
0.460190
0.415007
0.363138
0.305434
0.242809
0.176281
0.106914
0.035829
-0.035834
-0.106920
-0.176285
-0.242815
-0.305436
-0.363141
-0.415009
-0.460193
-0.497979
-0.527745
-0.549027
-0.561467
-0.564881
-0.559197
-0.544525
-0.521082
-0.489263
-0.449563
-0.402638
-0.349227
-0.290203
-0.226504
-0.159165
-0.089261
-0.017924
0.053703
0.124466
0.193225
0.258877
0.320361
0.376694
0.426960
0.470363
0.506191
0.533873
0.552974
0.563168
0.564310
0.556362
0.539472
0.513892
0.480052
0.438480
0.389860
0.334960
0.274677
0.209969
0.141886
0.071517
0.000000
