# vtk DataFile Version 2.0
this shit
ASCII
DATASET POLYDATA
POINTS 25 double
-12.566371 -12.566371 0.
-6.283185 -12.566371 0.
0.000000 -12.566371 0.
6.283185 -12.566371 0.
12.566371 -12.566371 0.
-12.566371 -6.283185 0.
-6.283185 -6.283185 0.
0.000000 -6.283185 0. 
6.283185 -6.283185 0.
12.566371 -6.283185 0.
-12.566371 0.000000 0.
-6.283185 0.000000 0.
0.000000 0.000000 0.
6.283185 0.000000 0.
12.566371 0.000000 0.
-12.566371 6.283185 0.
-6.283185 6.283185 0.
0.000000 6.283185 0.
6.283185 6.283185 0.
12.566371 6.283185 0.
-12.566371 12.566371 0.
-6.283185 12.566371 0.
0.000000 12.566371 0.
6.283185 12.566371 0.
12.566371 12.566371 0.
POLYGONS 32 128
3 0 1 6
3 0 6 5
3 1 2 7
3 1 7 6
3 2 3 8
3 2 8 7
3 3 4 9
3 3 9 8
3 5 6 11
3 5 11 10
3 6 7 12
3 6 12 11
3 7 8 13
3 7 13 12
3 8 9 14
3 8 14 13
3 10 11 16
3 10 16 15
3 11 12 17
3 11 17 16
3 12 13 18
3 12 18 17
3 13 14 19
3 13 19 18
3 15 16 21
3 15 21 20
3 16 17 22
3 16 22 21
3 17 18 23
3 17 23 22
3 18 19 24
3 18 24 23
POINT_DATA 25
SCALARS solution_0 double
LOOKUP_TABLE defaul
-75.696392
-75.610551
-75.610863
-75.611584
-75.681022
-75.433880
-48.227577
-48.142327
-48.220872
-75.432116
-75.433105
-47.985141
0.000000
-47.985141
-75.433105
-75.432116
-48.220872
-48.142327
-48.227577
-75.433880
-75.681022
-75.611584
-75.610863
-75.610551
-75.696392
