# vtk DataFile Version 2.0
MyTitle
ASCII
DATASET UNSTRUCTURED_GRID
POINTS 5525 double
1.000000 0.000000 0.000000
0.923880 0.382683 0.000000
5.000000 0.000000 0.000000
4.619398 1.913417 0.000000
0.932008 0.362438 0.000000
0.939693 0.342020 0.000000
0.946930 0.321439 0.000000
0.953717 0.300706 0.000000
0.960050 0.279829 0.000000
0.965926 0.258819 0.000000
0.971342 0.237686 0.000000
0.976296 0.216440 0.000000
0.980785 0.195090 0.000000
0.984808 0.173648 0.000000
0.988362 0.152123 0.000000
0.991445 0.130526 0.000000
0.994056 0.108867 0.000000
0.996195 0.087156 0.000000
0.997859 0.065403 0.000000
0.999048 0.043619 0.000000
0.999762 0.021815 0.000000
0.927999 0.372583 0.000000
0.935906 0.352250 0.000000
0.943368 0.331750 0.000000
0.950380 0.311091 0.000000
0.956940 0.290285 0.000000
0.963045 0.269340 0.000000
0.968692 0.248267 0.000000
0.973877 0.227076 0.000000
0.978599 0.205777 0.000000
0.982855 0.184380 0.000000
0.986643 0.162895 0.000000
0.989962 0.141333 0.000000
0.992810 0.119704 0.000000
0.995185 0.098017 0.000000
0.997086 0.076284 0.000000
0.998513 0.054515 0.000000
0.999465 0.032719 0.000000
0.999941 0.010908 0.000000
1.003771 0.000000 0.000000
1.007542 0.000000 0.000000
1.011615 0.000000 0.000000
1.015688 0.000000 0.000000
1.020087 0.000000 0.000000
1.024485 0.000000 0.000000
1.029236 0.000000 0.000000
1.033986 0.000000 0.000000
1.039117 0.000000 0.000000
1.044248 0.000000 0.000000
1.049789 0.000000 0.000000
1.055330 0.000000 0.000000
1.061314 0.000000 0.000000
1.067298 0.000000 0.000000
1.073761 0.000000 0.000000
1.080225 0.000000 0.000000
1.087205 0.000000 0.000000
1.094185 0.000000 0.000000
1.101723 0.000000 0.000000
1.109262 0.000000 0.000000
1.117404 0.000000 0.000000
1.125545 0.000000 0.000000
1.134338 0.000000 0.000000
1.143131 0.000000 0.000000
1.152627 0.000000 0.000000
1.162124 0.000000 0.000000
1.172380 0.000000 0.000000
1.182636 0.000000 0.000000
1.193713 0.000000 0.000000
1.204789 0.000000 0.000000
1.216752 0.000000 0.000000
1.228715 0.000000 0.000000
1.241634 0.000000 0.000000
1.254554 0.000000 0.000000
1.268507 0.000000 0.000000
1.282461 0.000000 0.000000
1.297530 0.000000 0.000000
1.312600 0.000000 0.000000
1.328875 0.000000 0.000000
1.345150 0.000000 0.000000
1.362727 0.000000 0.000000
1.380304 0.000000 0.000000
1.399288 0.000000 0.000000
1.418271 0.000000 0.000000
1.438773 0.000000 0.000000
1.459275 0.000000 0.000000
1.481417 0.000000 0.000000
1.503559 0.000000 0.000000
1.527473 0.000000 0.000000
1.551386 0.000000 0.000000
1.577213 0.000000 0.000000
1.603040 0.000000 0.000000
1.630932 0.000000 0.000000
1.658825 0.000000 0.000000
1.688949 0.000000 0.000000
1.719073 0.000000 0.000000
1.751607 0.000000 0.000000
1.784142 0.000000 0.000000
1.819278 0.000000 0.000000
1.854415 0.000000 0.000000
1.892363 0.000000 0.000000
1.930311 0.000000 0.000000
1.971294 0.000000 0.000000
2.012278 0.000000 0.000000
2.056540 0.000000 0.000000
2.100802 0.000000 0.000000
2.148606 0.000000 0.000000
2.196409 0.000000 0.000000
2.248036 0.000000 0.000000
2.299664 0.000000 0.000000
2.355421 0.000000 0.000000
2.411179 0.000000 0.000000
2.471397 0.000000 0.000000
2.531616 0.000000 0.000000
2.596652 0.000000 0.000000
2.661687 0.000000 0.000000
2.731926 0.000000 0.000000
2.802165 0.000000 0.000000
2.878022 0.000000 0.000000
2.953880 0.000000 0.000000
3.035806 0.000000 0.000000
3.117733 0.000000 0.000000
3.206213 0.000000 0.000000
3.294694 0.000000 0.000000
3.390253 0.000000 0.000000
3.485811 0.000000 0.000000
3.589015 0.000000 0.000000
3.692219 0.000000 0.000000
3.803679 0.000000 0.000000
3.915138 0.000000 0.000000
4.035515 0.000000 0.000000
4.155892 0.000000 0.000000
4.285899 0.000000 0.000000
4.415905 0.000000 0.000000
4.556313 0.000000 0.000000
4.696720 0.000000 0.000000
4.848360 0.000000 0.000000
1.001886 0.000000 0.000000
1.005657 0.000000 0.000000
1.009579 0.000000 0.000000
1.013652 0.000000 0.000000
1.017887 0.000000 0.000000
1.022286 0.000000 0.000000
1.026861 0.000000 0.000000
1.031611 0.000000 0.000000
1.036552 0.000000 0.000000
1.041682 0.000000 0.000000
1.047018 0.000000 0.000000
1.052559 0.000000 0.000000
1.058322 0.000000 0.000000
1.064306 0.000000 0.000000
1.070530 0.000000 0.000000
1.076993 0.000000 0.000000
1.083715 0.000000 0.000000
1.090695 0.000000 0.000000
1.097954 0.000000 0.000000
1.105493 0.000000 0.000000
1.113333 0.000000 0.000000
1.121474 0.000000 0.000000
1.129942 0.000000 0.000000
1.138735 0.000000 0.000000
1.147879 0.000000 0.000000
1.157376 0.000000 0.000000
1.167252 0.000000 0.000000
1.177508 0.000000 0.000000
1.188174 0.000000 0.000000
1.199251 0.000000 0.000000
1.210771 0.000000 0.000000
1.222733 0.000000 0.000000
1.235174 0.000000 0.000000
1.248094 0.000000 0.000000
1.261531 0.000000 0.000000
1.275484 0.000000 0.000000
1.289995 0.000000 0.000000
1.305065 0.000000 0.000000
1.320737 0.000000 0.000000
1.337013 0.000000 0.000000
1.353939 0.000000 0.000000
1.371516 0.000000 0.000000
1.389796 0.000000 0.000000
1.408779 0.000000 0.000000
1.428522 0.000000 0.000000
1.449024 0.000000 0.000000
1.470346 0.000000 0.000000
1.492488 0.000000 0.000000
1.515516 0.000000 0.000000
1.539430 0.000000 0.000000
1.564300 0.000000 0.000000
1.590126 0.000000 0.000000
1.616986 0.000000 0.000000
1.644879 0.000000 0.000000
1.673887 0.000000 0.000000
1.704011 0.000000 0.000000
1.735340 0.000000 0.000000
1.767874 0.000000 0.000000
1.801710 0.000000 0.000000
1.836847 0.000000 0.000000
1.873389 0.000000 0.000000
1.911337 0.000000 0.000000
1.950802 0.000000 0.000000
1.991786 0.000000 0.000000
2.034409 0.000000 0.000000
2.078671 0.000000 0.000000
2.124704 0.000000 0.000000
2.172507 0.000000 0.000000
2.222222 0.000000 0.000000
2.273850 0.000000 0.000000
2.327543 0.000000 0.000000
2.383300 0.000000 0.000000
2.441288 0.000000 0.000000
2.501507 0.000000 0.000000
2.564134 0.000000 0.000000
2.629169 0.000000 0.000000
2.696807 0.000000 0.000000
2.767045 0.000000 0.000000
2.840093 0.000000 0.000000
2.915951 0.000000 0.000000
2.994843 0.000000 0.000000
3.076770 0.000000 0.000000
3.161973 0.000000 0.000000
3.250453 0.000000 0.000000
3.342473 0.000000 0.000000
3.438032 0.000000 0.000000
3.537413 0.000000 0.000000
3.640617 0.000000 0.000000
3.747949 0.000000 0.000000
3.859408 0.000000 0.000000
3.975327 0.000000 0.000000
4.095703 0.000000 0.000000
4.220895 0.000000 0.000000
4.350902 0.000000 0.000000
4.486109 0.000000 0.000000
4.626516 0.000000 0.000000
4.772540 0.000000 0.000000
4.924180 0.000000 0.000000
4.998810 0.109074 0.000000
4.995241 0.218097 0.000000
4.989295 0.327016 0.000000
4.980973 0.435779 0.000000
4.970282 0.544334 0.000000
4.957224 0.652631 0.000000
4.941808 0.760617 0.000000
4.924039 0.868241 0.000000
4.903926 0.975452 0.000000
4.881480 1.082198 0.000000
4.856710 1.188429 0.000000
4.829629 1.294095 0.000000
4.800249 1.399145 0.000000
4.768585 1.503529 0.000000
4.734651 1.607197 0.000000
4.698463 1.710101 0.000000
4.660039 1.812190 0.000000
4.999703 0.054540 0.000000
4.997323 0.163595 0.000000
4.992565 0.272573 0.000000
4.985431 0.381420 0.000000
4.975924 0.490086 0.000000
4.964048 0.598518 0.000000
4.949810 0.706666 0.000000
4.933217 0.814477 0.000000
4.914275 0.921901 0.000000
4.892994 1.028886 0.000000
4.869385 1.135381 0.000000
4.843458 1.241336 0.000000
4.815226 1.346700 0.000000
4.784702 1.451423 0.000000
4.751900 1.555456 0.000000
4.716838 1.658748 0.000000
4.679530 1.761250 0.000000
4.639995 1.862915 0.000000
4.479301 1.855387 0.000000
4.339204 1.797357 0.000000
4.209484 1.743625 0.000000
4.079765 1.689894 0.000000
3.959654 1.640142 0.000000
3.839543 1.590391 0.000000
3.728330 1.544325 0.000000
3.617116 1.498259 0.000000
3.514141 1.455605 0.000000
3.411165 1.412951 0.000000
3.315818 1.373457 0.000000
3.220470 1.333962 0.000000
3.132185 1.297393 0.000000
3.043900 1.260825 0.000000
2.962155 1.226965 0.000000
2.880409 1.193105 0.000000
2.804719 1.161753 0.000000
2.729029 1.130401 0.000000
2.658946 1.101371 0.000000
2.588862 1.072342 0.000000
2.523970 1.045463 0.000000
2.459078 1.018584 0.000000
2.398993 0.993696 0.000000
2.338908 0.968807 0.000000
2.283274 0.945763 0.000000
2.227639 0.922718 0.000000
2.176126 0.901381 0.000000
2.124612 0.880043 0.000000
2.076915 0.860286 0.000000
2.029217 0.840529 0.000000
1.985053 0.822236 0.000000
1.940888 0.803942 0.000000
1.899995 0.787004 0.000000
1.859102 0.770065 0.000000
1.821238 0.754382 0.000000
1.783374 0.738698 0.000000
1.748315 0.724176 0.000000
1.713256 0.709654 0.000000
1.680794 0.696208 0.000000
1.648332 0.682761 0.000000
1.618274 0.670311 0.000000
1.588217 0.657861 0.000000
1.560386 0.646333 0.000000
1.532555 0.634805 0.000000
1.506785 0.624131 0.000000
1.481015 0.613457 0.000000
1.457155 0.603573 0.000000
1.433294 0.593690 0.000000
1.411201 0.584539 0.000000
1.389108 0.575387 0.000000
1.368651 0.566914 0.000000
1.348194 0.558440 0.000000
1.329253 0.550595 0.000000
1.310312 0.542749 0.000000
1.292773 0.535484 0.000000
1.275235 0.528220 0.000000
1.258996 0.521493 0.000000
1.242757 0.514767 0.000000
1.227720 0.508538 0.000000
1.212684 0.502310 0.000000
1.198762 0.496543 0.000000
1.184839 0.490776 0.000000
1.171948 0.485437 0.000000
1.159057 0.480097 0.000000
1.147121 0.475153 0.000000
1.135184 0.470209 0.000000
1.124132 0.465631 0.000000
1.113080 0.461053 0.000000
1.102847 0.456814 0.000000
1.092613 0.452575 0.000000
1.083138 0.448650 0.000000
1.073662 0.444726 0.000000
1.064889 0.441091 0.000000
1.056115 0.437457 0.000000
1.047992 0.434092 0.000000
1.039868 0.430727 0.000000
1.032346 0.427612 0.000000
1.024824 0.424496 0.000000
1.017860 0.421611 0.000000
1.010895 0.418726 0.000000
1.004446 0.416055 0.000000
0.997997 0.413384 0.000000
0.992026 0.410911 0.000000
0.986055 0.408437 0.000000
0.980526 0.406147 0.000000
0.974998 0.403857 0.000000
0.969878 0.401737 0.000000
0.964759 0.399616 0.000000
0.960019 0.397653 0.000000
0.955279 0.395689 0.000000
0.950890 0.393872 0.000000
0.946501 0.392054 0.000000
0.942437 0.390370 0.000000
0.938373 0.388687 0.000000
0.934611 0.387128 0.000000
0.930848 0.385570 0.000000
0.927364 0.384127 0.000000
4.549349 1.884402 0.000000
[...]
POINT_DATA 5525
VECTORS sol double
+12.000000 +0.000000 0
+11.086554 +4.592201 0
+0.480000 +0.000000 0
+0.443462 +0.183688 0
+11.184094 +4.349256 0
+11.276311 +4.104242 0
+11.363162 +3.857274 0
+11.444603 +3.608470 0
+11.520598 +3.357948 0
+11.591110 +3.105829 0
+11.656105 +2.852231 0
+11.715552 +2.597275 0
+11.769423 +2.341084 0
+11.817693 +2.083778 0
+11.860338 +1.825481 0
+11.897338 +1.566314 0
+11.928676 +1.306402 0
+11.954336 +1.045869 0
+11.974307 +0.784838 0
+11.988579 +0.523433 0
+11.997144 +0.261779 0
+11.135987 +4.470995 0
+11.230871 +4.227001 0
+11.320410 +3.980995 0
+11.404561 +3.733094 0
+11.483284 +3.483416 0
+11.556542 +3.232081 0
+11.624299 +2.979207 0
+11.686524 +2.724915 0
+11.743186 +2.469327 0
+11.794260 +2.212563 0
+11.839720 +1.954746 0
+11.879545 +1.695998 0
+11.913716 +1.436444 0
+11.942217 +1.176206 0
+11.965034 +0.915408 0
+11.982156 +0.654174 0
+11.993575 +0.392629 0
+11.999286 +0.130897 0
+11.910002 +0.000000 0
+11.821012 +0.000000 0
+11.726020 +0.000000 0
+11.632167 +0.000000 0
+11.532066 +0.000000 0
+11.433252 +0.000000 0
+11.327953 +0.000000 0
+11.224101 +0.000000 0
+11.113538 +0.000000 0
+11.004600 +0.000000 0
+10.888736 +0.000000 0
+10.774693 +0.000000 0
+10.653527 +0.000000 0
+10.534393 +0.000000 0
+10.407960 +0.000000 0
+10.283789 +0.000000 0
+10.152164 +0.000000 0
+10.023050 +0.000000 0
+9.886353 +0.000000 0
+9.752435 +0.000000 0
+9.610836 +0.000000 0
+9.472299 +0.000000 0
+9.326017 +0.000000 0
+9.183098 +0.000000 0
+9.032404 +0.000000 0
+8.885389 +0.000000 0
+8.730608 +0.000000 0
+8.579837 +0.000000 0
+8.421349 +0.000000 0
+8.267213 +0.000000 0
+8.105451 +0.000000 0
+7.948391 +0.000000 0
+7.783838 +0.000000 0
+7.624344 +0.000000 0
+7.457534 +0.000000 0
+7.296139 +0.000000 0
+7.127648 +0.000000 0
+6.964927 +0.000000 0
+6.795368 +0.000000 0
+6.631927 +0.000000 0
+6.461946 +0.000000 0
+6.298418 +0.000000 0
+6.128683 +0.000000 0
+5.965718 +0.000000 0
+5.796911 +0.000000 0
+5.635169 +0.000000 0
+5.467975 +0.000000 0
+5.308112 +0.000000 0
+5.143210 +0.000000 0
+4.985874 +0.000000 0
+4.823925 +0.000000 0
+4.669741 +0.000000 0
+4.511380 +0.000000 0
+4.360940 +0.000000 0
+4.206763 +0.000000 0
+4.060621 +0.000000 0
+3.911179 +0.000000 0
+3.769838 +0.000000 0
+3.625626 +0.000000 0
+3.489533 +0.000000 0
+3.350984 +0.000000 0
+3.220526 +0.000000 0
+3.088008 +0.000000 0
+2.963503 +0.000000 0
+2.837311 +0.000000 0
+2.719011 +0.000000 0
+2.599369 +0.000000 0
+2.487453 +0.000000 0
+2.374513 +0.000000 0
+2.269094 +0.000000 0
+2.162938 +0.000000 0
+2.064060 +0.000000 0
+1.964699 +0.000000 0
+1.872344 +0.000000 0
+1.779729 +0.000000 0
+1.693820 +0.000000 0
+1.607842 +0.000000 0
+1.528248 +0.000000 0
+1.448748 +0.000000 0
+1.375294 +0.000000 0
+1.302066 +0.000000 0
+1.234535 +0.000000 0
+1.167338 +0.000000 0
+1.105481 +0.000000 0
+1.044040 +0.000000 0
+0.987583 +0.000000 0
+0.931603 +0.000000 0
+0.880251 +0.000000 0
+0.829418 +0.000000 0
+0.782865 +0.000000 0
+0.736857 +0.000000 0
+0.694789 +0.000000 0
+0.653277 +0.000000 0
+0.615378 +0.000000 0
+0.578035 +0.000000 0
+0.543991 +0.000000 0
+0.510495 +0.000000 0
+11.954874 +0.000000 0
+11.865382 +0.000000 0
+11.773372 +0.000000 0
+11.678952 +0.000000 0
+11.581954 +0.000000 0
+11.482500 +0.000000 0
+11.380420 +0.000000 0
+11.275848 +0.000000 0
+11.168614 +0.000000 0
+11.058868 +0.000000 0
+10.946438 +0.000000 0
+10.831490 +0.000000 0
+10.713853 +0.000000 0
+10.593709 +0.000000 0
+10.470890 +0.000000 0
+10.345595 +0.000000 0
+10.217658 +0.000000 0
+10.087297 +0.000000 0
+9.954350 +0.000000 0
+9.819052 +0.000000 0
+9.681247 +0.000000 0
+9.541191 +0.000000 0
+9.398731 +0.000000 0
+9.254144 +0.000000 0
+9.107283 +0.000000 0
+8.958444 +0.000000 0
+8.807489 +0.000000 0
+8.654730 +0.000000 0
+8.500039 +0.000000 0
+8.343747 +0.000000 0
+8.185733 +0.000000 0
+8.026345 +0.000000 0
+7.865469 +0.000000 0
+7.703472 +0.000000 0
+7.540247 +0.000000 0
+7.376175 +0.000000 0
+7.211156 +0.000000 0
+7.045583 +0.000000 0
+6.879364 +0.000000 0
+6.712902 +0.000000 0
+6.546109 +0.000000 0
+6.379396 +0.000000 0
+6.212681 +0.000000 0
+6.046377 +0.000000 0
+5.880406 +0.000000 0
+5.715182 +0.000000 0
+5.550628 +0.000000 0
+5.387154 +0.000000 0
+5.224685 +0.000000 0
+5.063625 +0.000000 0
+4.903897 +0.000000 0
+4.745894 +0.000000 0
+4.589536 +0.000000 0
+4.435203 +0.000000 0
+4.282811 +0.000000 0
+4.132723 +0.000000 0
+3.984849 +0.000000 0
+3.839533 +0.000000 0
+3.696677 +0.000000 0
+3.556603 +0.000000 0
+3.419206 +0.000000 0
+3.284784 +0.000000 0
+3.153223 +0.000000 0
+3.024795 +0.000000 0
+2.899377 +0.000000 0
+2.777216 +0.000000 0
+2.658180 +0.000000 0
+2.542488 +0.000000 0
+2.429999 +0.000000 0
+2.320906 +0.000000 0
+2.215062 +0.000000 0
+2.112631 +0.000000 0
+2.013460 +0.000000 0
+1.917688 +0.000000 0
+1.825156 +0.000000 0
+1.735978 +0.000000 0
+1.649991 +0.000000 0
+1.567288 +0.000000 0
+1.487702 +0.000000 0
+1.411305 +0.000000 0
+1.337929 +0.000000 0
+1.267626 +0.000000 0
+1.200231 +0.000000 0
+1.135778 +0.000000 0
+1.074102 +0.000000 0
+1.015223 +0.000000 0
+0.958980 +0.000000 0
+0.905381 +0.000000 0
+0.854268 +0.000000 0
+0.805638 +0.000000 0
+0.759339 +0.000000 0
+0.715359 +0.000000 0
+0.673554 +0.000000 0
+0.633903 +0.000000 0
+0.596268 +0.000000 0
+0.560626 +0.000000 0
+0.526844 +0.000000 0
+0.494895 +0.000000 0
+0.479886 +0.010471 0
+0.479543 +0.020937 0
+0.478972 +0.031394 0
+0.478173 +0.041835 0
+0.477147 +0.052256 0
+0.475894 +0.062653 0
+0.474414 +0.073019 0
+0.472708 +0.083351 0
+0.470777 +0.093643 0
+0.468622 +0.103891 0
+0.466244 +0.114089 0
+0.463644 +0.124233 0
+0.460824 +0.134318 0
+0.457784 +0.144339 0
+0.454526 +0.154291 0
+0.451052 +0.164170 0
+0.447364 +0.173970 0
+0.479971 +0.005236 0
+0.479743 +0.015705 0
+0.479286 +0.026167 0
+0.478601 +0.036616 0
+0.477689 +0.047048 0
+0.476549 +0.057458 0
+0.475182 +0.067840 0
+0.473589 +0.078190 0
+0.471770 +0.088503 0
+0.469727 +0.098773 0
+0.467461 +0.108997 0
+0.464972 +0.119168 0
+0.462262 +0.129283 0
+0.459331 +0.139337 0
+0.456182 +0.149324 0
+0.452816 +0.159240 0
+0.449235 +0.169080 0
+0.445439 +0.178840 0
+0.471636 +0.195358 0
+0.502582 +0.208176 0
+0.534035 +0.221204 0
+0.568535 +0.235495 0
+0.603549 +0.249998 0
+0.641901 +0.265884 0
+0.680767 +0.281983 0
+0.723273 +0.299590 0
+0.766283 +0.317405 0
+0.813246 +0.336857 0
+0.860689 +0.356509 0
+0.912407 +0.377932 0
+0.964567 +0.399537 0
+1.021331 +0.423049 0
+1.078479 +0.446721 0
+1.140562 +0.472436 0
+1.202952 +0.498279 0
+1.270606 +0.526302 0
+1.338469 +0.554412 0
+1.411917 +0.584835 0
+1.485452 +0.615295 0
+1.564885 +0.648197 0
+1.644255 +0.681073 0
+1.729820 +0.716515 0
+1.815145 +0.751858 0
+1.906943 +0.789882 0
+1.998294 +0.827720 0
+2.096370 +0.868345 0
+2.193764 +0.908687 0
+2.298107 +0.951907 0
+2.401503 +0.994735 0
+2.512038 +1.040520 0
+2.621333 +1.085792 0
+2.737920 +1.134084 0
+2.852947 +1.181729 0
+2.975378 +1.232442 0
+3.095906 +1.282366 0
+3.223908 +1.335387 0
+3.349641 +1.387467 0
+3.482876 +1.442654 0
+3.613458 +1.496743 0
+3.751524 +1.553932 0
+3.886542 +1.609859 0
+4.028983 +1.668859 0
+4.167971 +1.726430 0
+4.314278 +1.787032 0
+4.456726 +1.846036 0
+4.606347 +1.908011 0
+4.751706 +1.968221 0
+4.904056 +2.031327 0
+5.051750 +2.092503 0
+5.206217 +2.156486 0
+5.355648 +2.218382 0
+5.511605 +2.282982 0
+5.662165 +2.345346 0
+5.818980 +2.410300 0
+5.970060 +2.472880 0
+6.127102 +2.537929 0
+6.278102 +2.600475 0
+6.434753 +2.665362 0
+6.585088 +2.727633 0
+6.740754 +2.792112 0
+6.889863 +2.853875 0
+7.043975 +2.917710 0
+7.191329 +2.978746 0
+7.343355 +3.041717 0
+7.488460 +3.101822 0
+7.637909 +3.163725 0
+7.780312 +3.222711 0
+7.926736 +3.283362 0
+8.066030 +3.341059 0
+8.209029 +3.400291 0
+8.344853 +3.456551 0
+8.484076 +3.514219 0
+8.616116 +3.568912 0
+8.751263 +3.624892 0
+8.879255 +3.677908 0
+9.010075 +3.732095 0
+9.133800 +3.783344 0
+9.260090 +3.835655 0
+9.379376 +3.885065 0
+9.500982 +3.935436 0
+9.615701 +3.982954 0
+9.732510 +4.031338 0
+9.842576 +4.076928 0
+9.954518 +4.123297 0
+10.059881 +4.166939 0
+10.166925 +4.211278 0
+10.267570 +4.252967 0
+10.369718 +4.295278 0
+10.465664 +4.335020 0
+10.562948 +4.375316 0
+10.654240 +4.413131 0
+10.746721 +4.451438 0
+10.833429 +4.487353 0
+10.921191 +4.523706 0
+11.003407 +4.557760 0
+0.457224 +0.189388 0
+0.486740 +0.201614 0
+0.517951 +0.214542 0
+0.550880 +0.228182 0
+0.585650 +0.242584 0
+0.622282 +0.257758 0
+0.660906 +0.273756 0
+0.701538 +0.290586 0
+0.744312 +0.308304 0
+0.789240 +0.326914 0
+0.836463 +0.346474 0
+0.885982 +0.366986 0
+0.937944 +0.388509 0
+0.992341 +0.411041 0
+1.049322 +0.434643 0
+1.108869 +0.459309 0
+1.171134 +0.485100 0
+1.236085 +0.512003 0
+1.303875 +0.540083 0
+1.374458 +0.569319 0
+1.447985 +0.599775 0
+1.524393 +0.631424 0
+1.603834 +0.664330 0
+1.686224 +0.698457 0
+1.771713 +0.733867 0
+1.860195 +0.770518 0
+1.951817 +0.808469 0
+2.046451 +0.847668 0
+2.144238 +0.888172 0
+2.245027 +0.929921 0
+2.348952 +0.972968 0
+2.455838 +1.017242 0
+2.565813 +1.062795 0
+2.678675 +1.109544 0
+2.794546 +1.157539 0
+2.913198 +1.206686 0
+3.034745 +1.257032 0
+3.158935 +1.308474 0
+3.285873 +1.361053 0
+3.415284 +1.414657 0
+3.547266 +1.469326 0
+3.681521 +1.524936 0
+3.818138 +1.581525 0
+3.956801 +1.638961 0
+4.097593 +1.697279 0
+4.240178 +1.756339 0
+4.384634 +1.816175 0
+4.530610 +1.876640 0
+4.678180 +1.937766 0
+4.826980 +1.999400 0
+4.977081 +2.061575 0
+5.128111 +2.124133 0
+5.280140 +2.187105 0
+5.432787 +2.250334 0
+5.586124 +2.313848 0
+5.739769 +2.377490 0
+5.893794 +2.441289 0
+6.047816 +2.505088 0
+6.201912 +2.568916 0
+6.355704 +2.632619 0
+6.509270 +2.696228 0
+6.662239 +2.759590 0
+6.814697 +2.822740 0
+6.966280 +2.885528 0
+7.117080 +2.947991 0
+7.266746 +3.009985 0
+7.415375 +3.071549 0
+7.562631 +3.132544 0
+7.708617 +3.193014 0
+7.853012 +3.252824 0
+7.995928 +3.312022 0
+8.137058 +3.370480 0
+8.276523 +3.428248 0
+8.414033 +3.485206 0
+8.549714 +3.541407 0
+8.683296 +3.596739 0
+8.814911 +3.651256 0
+8.944306 +3.704853 0
+9.071621 +3.757588 0
+9.196620 +3.809365 0
+9.319447 +3.860241 0
+9.439885 +3.910129 0
+9.558083 +3.959088 0
+9.673841 +4.007036 0
+9.787311 +4.054037 0
+9.898310 +4.100014 0
+10.006992 +4.145032 0
+10.113190 +4.189021 0
+10.217061 +4.232045 0
+10.318454 +4.274044 0
+10.417525 +4.315080 0
+10.514137 +4.355098 0
+10.608447 +4.394162 0
+10.700331 +4.432222 0
+10.789945 +4.469341 0
+10.877178 +4.505475 0
+10.962184 +4.540685 0
+11.044863 +4.574932 0
+11.126682 +4.048946 0
+10.964890 +3.989156 0
+10.792727 +3.925547 0
+10.607883 +3.857271 0
+10.413597 +3.785541 0
+10.209191 +3.710124 0
+9.992603 +3.630263 0
+9.767154 +3.547206 0
+9.528974 +3.459533 0
+9.281854 +3.368663 0
+9.025139 +3.274365 0
+8.757620 +3.176202 0
+8.481996 +3.075183 0
+8.197219 +2.970924 0
+7.905348 +2.864197 0
+7.606411 +2.755016 0
+7.301354 +2.643717 0
+6.991908 +2.530946 0
+6.678546 +2.416865 0
+6.362619 +2.301962 0
+6.045626 +2.186776 0
+5.728754 +2.071729 0
+5.413500 +1.957357 0
+5.100883 +1.844022 0
+4.792577 +1.732315 0
+4.490267 +1.622838 0
+4.194277 +1.515703 0
+3.906045 +1.411416 0
+3.626763 +1.310399 0
+3.357379 +1.212990 0
+3.098804 +1.119512 0
+2.851642 +1.030176 0
+2.616415 +0.945167 0
+2.393736 +0.864702 0
+2.183714 +0.788820 0
+1.986409 +0.717538 0
+1.801807 +0.650849 0
+1.631150 +0.589203 0
+1.470720 +0.531255 0
+1.324349 +0.478390 0
+1.188718 +0.429411 0
+1.064307 +0.384492 0
+0.950559 +0.343437 0
+0.846859 +0.306032 0
+0.752528 +0.272041 0
+0.666815 +0.241210 0
+0.588853 +0.213249 0
+0.517543 +0.187788 0
+11.300246 +3.562046 0
+11.142635 +3.511351 0
+10.974559 +3.457301 0
+10.799040 +3.400873 0
+10.606530 +3.339005 0
+10.409236 +3.275639 0
+10.196342 +3.207304 0
+9.973689 +3.135900 0
+9.741438 +3.061501 0
+9.496080 +2.982991 0
+9.240826 +2.901423 0
+8.974731 +2.816513 0
+8.698865 +2.728619 0
+8.413236 +2.637753 0
+8.118869 +2.544259 0
+7.817200 +2.448606 0
+7.508426 +2.350854 0
+7.194009 +2.251471 0
+6.875233 +2.150863 0
+6.553340 +2.049417 0
+6.229906 +1.947621 0
+5.905748 +1.845725 0
+5.582271 +1.744153 0
+5.261985 +1.643683 0
+4.945400 +1.544469 0
+4.633959 +1.446939 0
+4.328628 +1.351386 0
+4.031779 +1.258543 0
+3.743889 +1.168547 0
+3.466273 +1.081798 0
+3.200362 +0.998733 0
+2.944602 +0.918862 0
+2.701602 +0.842992 0
+2.471878 +0.771280 0
+2.255092 +0.703617 0
+2.051889 +0.640202 0
+1.860660 +0.580531 0
+1.685018 +0.525728 0
+1.518576 +0.473802 0
+1.368035 +0.426842 0
+1.227857 +0.383123 0
+1.099225 +0.343017 0
+0.981542 +0.306343 0
+0.874130 +0.272899 0
+0.776222 +0.242459 0
+0.686926 +0.214766 0
+0.605160 +0.189506 0
+0.529490 +0.166256 0
+11.450188 +3.067423 0
+11.295138 +3.025167 0
+11.128432 +2.979737 0
+10.952182 +2.931718 0
+10.765139 +2.880772 0
+10.568632 +2.827261 0
+10.357799 +2.769888 0
+10.137122 +2.709873 0
+9.905270 +2.646867 0
+9.661422 +2.580662 0
+9.407419 +2.511773 0
+9.140613 +2.439500 0
+8.864891 +2.364907 0
+8.578161 +2.287438 0
+8.282256 +2.207604 0
+7.978354 +2.125731 0
+7.666681 +2.041885 0
+7.348790 +1.956487 0
+7.025728 +1.869817 0
+6.699081 +1.782296 0
+6.370172 +1.694278 0
+6.041416 +1.606400 0
+5.710884 +1.518134 0
+5.384337 +1.431016 0
+5.061151 +1.344864 0
+4.743692 +1.260297 0
+4.431591 +1.177210 0
+4.127960 +1.096422 0
+3.833914 +1.018217 0
+3.550002 +0.942734 0
+3.277276 +0.870250 0
+3.016047 +0.800839 0
+2.767325 +0.734765 0
+2.531970 +0.672252 0
+2.309973 +0.613293 0
+2.101920 +0.558045 0
+1.905952 +0.506009 0
+1.726099 +0.458260 0
+1.555884 +0.413073 0
+1.401352 +0.372053 0
+1.257707 +0.333931 0
+1.125859 +0.298948 0
+1.005178 +0.266943 0
+0.894942 +0.237731 0
+0.794316 +0.211101 0
+0.702311 +0.186804 0
+0.617700 +0.164534 0
+0.538872 +0.143875 0
+11.574147 +2.565691 0
+11.418902 +2.531024 0
+11.253314 +2.494048 0
+11.077363 +2.454757 0
+10.889284 +2.412763 0
+10.694819 +2.369348 0
+10.483479 +2.322177 0
+10.262609 +2.272893 0
+10.029894 +2.220979 0
+9.785724 +2.166533 0
+9.531005 +2.109762 0
+9.263454 +2.050161 0
+8.986113 +1.988411 0
+8.697050 +1.924089 0
+8.399452 +1.857908 0
+8.092164 +1.789614 0
+7.778284 +1.719901 0
+7.457429 +1.648680 0
+7.131221 +1.576317 0
+6.800486 +1.502991 0
+6.467586 +1.429225 0
+6.133853 +1.355311 0
+5.800121 +1.281434 0
+5.470352 +1.208460 0
+5.141037 +1.135613 0
+4.818425 +1.064274 0
+4.502350 +0.994399 0
+4.194342 +0.926321 0
+3.895144 +0.860203 0
+3.606966 +0.796532 0
+3.330038 +0.735356 0
+3.064616 +0.676728 0
+2.812320 +0.621003 0
+2.572968 +0.568140 0
+2.347384 +0.518323 0
+2.135170 +0.471460 0
+1.936787 +0.427654 0
+1.752788 +0.387026 0
+1.581474 +0.349199 0
+1.424058 +0.314444 0
+1.278060 +0.282212 0
+1.144033 +0.252626 0
+1.021330 +0.225545 0
+0.909202 +0.200807 0
+0.806779 +0.178223 0
+0.713015 +0.157567 0
+0.626610 +0.138560 0
+0.545878 +0.120831 0
+11.673828 +2.058643 0
+11.517878 +2.031392 0
+11.350920 +2.002220 0
+11.173759 +1.971263 0
+10.985120 +1.938296 0
+10.786937 +1.903651 0
+10.573942 +1.866410 0
+10.351022 +1.827420 0
+10.116301 +1.786350 0
+9.869830 +1.743201 0
+9.612452 +1.698117 0
+9.342886 +1.650870 0
+9.062052 +1.601616 0
+8.771945 +1.550699 0
+8.471366 +1.497901 0
+8.161244 +1.443385 0
+7.844346 +1.387637 0
+7.520695 +1.330652 0
+7.191588 +1.272667 0
+6.857964 +1.213845 0
+6.522262 +1.154613 0
+6.185302 +1.095125 0
+5.848452 +1.035624 0
+5.514890 +0.976673 0
+5.184170 +0.918200 0
+4.858661 +0.860625 0
+4.539905 +0.804225 0
+4.229577 +0.749301 0
+3.928140 +0.695936 0
+3.637996 +0.644563 0
+3.357837 +0.594946 0
+3.090114 +0.547527 0
+2.835758 +0.502472 0
+2.594104 +0.459661 0
+2.367577 +0.419529 0
+2.153691 +0.381632 0
+1.952950 +0.346063 0
+1.767539 +0.313209 0
+1.594751 +0.282590 0
+1.435991 +0.254455 0
+1.288771 +0.228363 0
+1.153624 +0.204406 0
+1.029898 +0.182469 0
+0.916839 +0.162415 0
+0.813569 +0.144084 0
+0.719038 +0.127286 0
+0.631936 +0.111781 0
+0.550566 +0.097265 0
+11.752566 +1.547882 0
+11.591004 +1.527312 0
+11.420698 +1.505626 0
+11.240573 +1.482681 0
+11.050232 +1.458426 0
+10.846629 +1.432456 0
+10.629628 +1.404752 0
+10.402823 +1.375757 0
+10.164963 +1.345298 0
+9.913861 +1.313083 0
+9.653064 +1.279554 0
+9.379304 +1.244277 0
+9.094436 +1.207473 0
+8.801028 +1.169463 0
+8.497026 +1.129974 0
+8.184272 +1.089232 0
+7.864814 +1.047498 0
+7.538081 +1.004698 0
+7.206454 +0.961143 0
+6.871232 +0.917006 0
+6.533332 +0.872410 0
+6.195094 +0.827674 0
+5.857021 +0.782872 0
+5.521859 +0.738378 0
+5.190592 +0.694332 0
+4.864158 +0.650871 0
+4.544586 +0.608273 0
+4.234340 +0.566877 0
+3.932388 +0.526554 0
+3.640197 +0.487506 0
+3.360376 +0.450090 0
+3.093413 +0.414377 0
+2.837802 +0.380168 0
+2.596134 +0.347818 0
+2.368526 +0.317340 0
+2.155279 +0.288778 0
+1.955125 +0.261966 0
+1.770076 +0.237172 0
+1.597011 +0.213981 0
+1.437059 +0.192542 0
+1.289760 +0.172792 0
+1.154560 +0.154655 0
+1.030818 +0.138042 0
+0.917794 +0.122845 0
+0.814637 +0.108940 0
+0.720338 +0.096178 0
+0.633644 +0.084374 0
+0.552911 +0.073295 0
+11.806567 +1.033791 0
+11.639132 +1.020109 0
+11.463156 +1.005724 0
+11.278524 +0.990616 0
+11.080381 +0.974381 0
+10.870432 +0.957148 0
+10.646845 +0.938750 0
+10.415502 +0.919649 0
+10.169898 +0.899298 0
+9.913608 +0.877968 0
+9.647862 +0.855755 0
+9.368888 +0.832322 0
+9.080156 +0.807937 0
+8.781321 +0.782562 0
+8.474441 +0.756361 0
+8.158971 +0.729277 0
+7.836415 +0.701434 0
+7.507958 +0.672936 0
+7.174980 +0.643897 0
+6.838736 +0.614435 0
+6.500534 +0.584672 0
+6.161824 +0.554744 0
+5.824397 +0.524820 0
+5.489828 +0.495050 0
+5.159519 +0.465577 0
+4.834465 +0.436498 0
+4.516415 +0.407986 0
+4.206453 +0.380148 0
+3.906134 +0.353133 0
+3.616450 +0.327039 0
+3.337967 +0.301927 0
+3.071750 +0.277901 0
+2.818804 +0.255056 0
+2.578801 +0.233369 0
+2.352694 +0.212927 0
+2.140112 +0.193700 0
+1.941218 +0.175706 0
+1.757942 +0.159119 0
+1.586073 +0.143559 0
+1.427245 +0.129174 0
+1.281007 +0.115921 0
+1.146818 +0.103749 0
+1.024059 +0.092595 0
+0.912025 +0.082389 0
+0.809921 +0.073044 0
+0.716825 +0.064458 0
+0.631616 +0.056504 0
+0.552808 +0.049026 0
+11.831404 +0.517340 0
+11.656924 +0.510583 0
+11.472256 +0.503420 0
+11.277849 +0.495851 0
+11.069634 +0.487725 0
+10.851165 +0.479155 0
+10.622297 +0.470119 0
+10.380127 +0.460497 0
+10.127686 +0.450393 0
+9.864358 +0.439769 0
+9.590416 +0.428624 0
+9.306353 +0.416965 0
+9.012581 +0.404799 0
+8.709964 +0.392154 0
+8.399315 +0.379056 0
+8.081414 +0.365535 0
+7.757222 +0.351627 0
+7.428011 +0.337389 0
+7.094836 +0.322866 0
+6.759162 +0.308131 0
+6.422113 +0.293237 0
+6.085264 +0.278261 0
+5.750041 +0.263275 0
+5.418375 +0.248375 0
+5.090898 +0.233598 0
+4.769175 +0.219028 0
+4.454888 +0.204746 0
+4.148743 +0.190797 0
+3.852106 +0.177249 0
+3.565977 +0.164155 0
+3.291162 +0.151559 0
+3.028655 +0.139511 0
+2.778893 +0.128036 0
+2.542351 +0.117158 0
+2.319225 +0.106891 0
+2.109643 +0.097241 0
+1.913727 +0.088215 0
+1.732464 +0.079861 0
+1.563099 +0.072052 0
+1.406611 +0.064832 0
+1.262561 +0.058179 0
+1.130430 +0.052068 0
+1.009630 +0.046468 0
+0.899509 +0.041342 0
+0.799351 +0.036647 0
+0.708364 +0.032330 0
+0.625637 +0.028328 0
+0.550011 +0.024562 0
+11.203149 +4.077204 0
+11.030481 +4.288972 0
+11.107728 +4.319279 0
+11.046659 +4.019372 0
+10.863644 +4.223489 0
+10.947412 +4.256349 0
+10.878575 +3.957260 0
+10.686046 +4.153795 0
+10.775288 +4.188794 0
+10.699918 +3.891261 0
+10.497758 +4.079921 0
+10.592034 +4.116888 0
+10.511046 +3.821511 0
+10.299439 +4.002145 0
+10.399310 +4.041292 0
+10.311206 +3.747754 0
+10.090711 +3.920325 0
+10.195587 +3.961414 0
+10.101094 +3.670257 0
+9.871641 +3.834489 0
+9.981603 +3.877555 0
+9.879632 +3.588631 0
+9.642593 +3.744795 0
+9.757823 +3.789897 0
+9.647851 +3.503277 0
+9.403353 +3.651162 0
+9.523733 +3.698255 0
+9.405775 +3.414218 0
+9.154545 +3.553848 0
+9.279757 +3.602800 0
+9.153754 +3.321591 0
+8.896302 +3.452906 0
+9.026379 +3.503735 0
+8.891351 +3.225257 0
+8.628856 +3.348434 0
+8.763366 +3.400955 0
+8.620226 +3.125827 0
+8.352996 +3.240748 0
+8.491909 +3.294963 0
+8.339560 +3.023017 0
+8.069370 +3.130103 0
+8.211991 +3.185725 0
+8.052315 +2.917922 0
+7.778648 +3.016769 0
+7.924878 +3.073763 0
+7.756169 +2.809693 0
+7.481497 +2.901003 0
+7.630763 +2.959145 0
+7.454670 +2.699640 0
+7.178969 +2.783214 0
+7.330866 +2.842346 0