# vtk DataFile Version 2.0
MyTitle
ASCII
DATASET UNSTRUCTURED_GRID
POINTS 2725 double
1.000000 0.000000 0.000000
0.923880 0.382683 0.000000
5.000000 0.000000 0.000000
4.619398 1.913417 0.000000
0.932008 0.362438 0.000000
0.939693 0.342020 0.000000
0.946930 0.321439 0.000000
0.953717 0.300706 0.000000
0.960050 0.279829 0.000000
0.965926 0.258819 0.000000
0.971342 0.237686 0.000000
0.976296 0.216440 0.000000
0.980785 0.195090 0.000000
0.984808 0.173648 0.000000
0.988362 0.152123 0.000000
0.991445 0.130526 0.000000
0.994056 0.108867 0.000000
0.996195 0.087156 0.000000
0.997859 0.065403 0.000000
0.999048 0.043619 0.000000
0.999762 0.021815 0.000000
0.927999 0.372583 0.000000
0.935906 0.352250 0.000000
0.943368 0.331750 0.000000
0.950380 0.311091 0.000000
0.956940 0.290285 0.000000
0.963045 0.269340 0.000000
0.968692 0.248267 0.000000
0.973877 0.227076 0.000000
0.978599 0.205777 0.000000
0.982855 0.184380 0.000000
0.986643 0.162895 0.000000
0.989962 0.141333 0.000000
0.992810 0.119704 0.000000
0.995185 0.098017 0.000000
0.997086 0.076284 0.000000
0.998513 0.054515 0.000000
0.999465 0.032719 0.000000
0.999941 0.010908 0.000000
1.022600 0.000000 0.000000
1.045199 0.000000 0.000000
1.070059 0.000000 0.000000
1.094918 0.000000 0.000000
1.122264 0.000000 0.000000
1.149609 0.000000 0.000000
1.179689 0.000000 0.000000
1.209769 0.000000 0.000000
1.242857 0.000000 0.000000
1.275945 0.000000 0.000000
1.312342 0.000000 0.000000
1.348739 0.000000 0.000000
1.388775 0.000000 0.000000
1.428812 0.000000 0.000000
1.472852 0.000000 0.000000
1.516892 0.000000 0.000000
1.565336 0.000000 0.000000
1.613780 0.000000 0.000000
1.667069 0.000000 0.000000
1.720357 0.000000 0.000000
1.778975 0.000000 0.000000
1.837592 0.000000 0.000000
1.902071 0.000000 0.000000
1.966550 0.000000 0.000000
2.037478 0.000000 0.000000
2.108405 0.000000 0.000000
2.186424 0.000000 0.000000
2.264444 0.000000 0.000000
2.350266 0.000000 0.000000
2.436088 0.000000 0.000000
2.530492 0.000000 0.000000
2.624896 0.000000 0.000000
2.728740 0.000000 0.000000
2.832584 0.000000 0.000000
2.946813 0.000000 0.000000
3.061042 0.000000 0.000000
3.186693 0.000000 0.000000
3.312345 0.000000 0.000000
3.450562 0.000000 0.000000
3.588779 0.000000 0.000000
3.740817 0.000000 0.000000
3.892856 0.000000 0.000000
4.060098 0.000000 0.000000
4.227340 0.000000 0.000000
4.411307 0.000000 0.000000
4.595274 0.000000 0.000000
4.797637 0.000000 0.000000
1.011300 0.000000 0.000000
1.033899 0.000000 0.000000
1.057629 0.000000 0.000000
1.082488 0.000000 0.000000
1.108591 0.000000 0.000000
1.135936 0.000000 0.000000
1.164649 0.000000 0.000000
1.194729 0.000000 0.000000
1.226313 0.000000 0.000000
1.259401 0.000000 0.000000
1.294143 0.000000 0.000000
1.330540 0.000000 0.000000
1.368757 0.000000 0.000000
1.408793 0.000000 0.000000
1.450832 0.000000 0.000000
1.494872 0.000000 0.000000
1.541114 0.000000 0.000000
1.589558 0.000000 0.000000
1.640424 0.000000 0.000000
1.693713 0.000000 0.000000
1.749666 0.000000 0.000000
1.808283 0.000000 0.000000
1.869832 0.000000 0.000000
1.934311 0.000000 0.000000
2.002014 0.000000 0.000000
2.072941 0.000000 0.000000
2.147415 0.000000 0.000000
2.225434 0.000000 0.000000
2.307355 0.000000 0.000000
2.393177 0.000000 0.000000
2.483290 0.000000 0.000000
2.577694 0.000000 0.000000
2.676818 0.000000 0.000000
2.780662 0.000000 0.000000
2.889699 0.000000 0.000000
3.003927 0.000000 0.000000
3.123868 0.000000 0.000000
3.249519 0.000000 0.000000
3.381454 0.000000 0.000000
3.519670 0.000000 0.000000
3.664798 0.000000 0.000000
3.816836 0.000000 0.000000
3.976477 0.000000 0.000000
4.143719 0.000000 0.000000
4.319324 0.000000 0.000000
4.503290 0.000000 0.000000
4.696455 0.000000 0.000000
4.898818 0.000000 0.000000
4.998810 0.109074 0.000000
4.995241 0.218097 0.000000
4.989295 0.327016 0.000000
4.980973 0.435779 0.000000
4.970282 0.544334 0.000000
4.957224 0.652631 0.000000
4.941808 0.760617 0.000000
4.924039 0.868241 0.000000
4.903926 0.975452 0.000000
4.881480 1.082198 0.000000
4.856710 1.188429 0.000000
4.829629 1.294095 0.000000
4.800249 1.399145 0.000000
4.768585 1.503529 0.000000
4.734651 1.607197 0.000000
4.698463 1.710101 0.000000
4.660039 1.812190 0.000000
4.999703 0.054540 0.000000
4.997323 0.163595 0.000000
4.992565 0.272573 0.000000
4.985431 0.381420 0.000000
4.975924 0.490086 0.000000
4.964048 0.598518 0.000000
4.949810 0.706666 0.000000
4.933217 0.814477 0.000000
4.914275 0.921901 0.000000
4.892994 1.028886 0.000000
4.869385 1.135381 0.000000
4.843458 1.241336 0.000000
4.815226 1.346700 0.000000
4.784702 1.451423 0.000000
4.751900 1.555456 0.000000
4.716838 1.658748 0.000000
4.679530 1.761250 0.000000
4.639995 1.862915 0.000000
4.432438 1.835976 0.000000
4.245479 1.758535 0.000000
4.075516 1.688134 0.000000
3.905553 1.617733 0.000000
3.751041 1.553732 0.000000
3.596530 1.489731 0.000000
3.456064 1.431549 0.000000
3.315599 1.373366 0.000000
3.187904 1.320473 0.000000
3.060208 1.267580 0.000000
2.944121 1.219495 0.000000
2.828034 1.171410 0.000000
2.722500 1.127697 0.000000
2.616967 1.083983 0.000000
2.521027 1.044244 0.000000
2.425087 1.004504 0.000000
2.337869 0.968377 0.000000
2.250652 0.932250 0.000000
2.171363 0.899408 0.000000
2.092074 0.866565 0.000000
2.019993 0.836708 0.000000
1.947912 0.806852 0.000000
1.882384 0.779709 0.000000
1.816856 0.752566 0.000000
1.757285 0.727891 0.000000
1.697714 0.703216 0.000000
1.643558 0.680784 0.000000
1.589403 0.658352 0.000000
1.540171 0.637960 0.000000
1.490939 0.617567 0.000000
1.446182 0.599028 0.000000
1.401425 0.580489 0.000000
1.360738 0.563636 0.000000
1.320050 0.546783 0.000000
1.283061 0.531461 0.000000
1.246072 0.516140 0.000000
1.212446 0.502211 0.000000
1.178820 0.488283 0.000000
1.148250 0.475621 0.000000
1.117681 0.462959 0.000000
1.089891 0.451447 0.000000
1.062100 0.439936 0.000000
1.036836 0.429472 0.000000
1.011572 0.419007 0.000000
0.988605 0.409494 0.000000
0.965638 0.399980 0.000000
0.944759 0.391332 0.000000
4.525918 1.874697 0.000000
4.338959 1.797256 0.000000
4.160498 1.723335 0.000000
3.990535 1.652934 0.000000
3.828297 1.585733 0.000000
3.673786 1.521732 0.000000
3.526297 1.460640 0.000000
3.385832 1.402457 0.000000
3.251751 1.346920 0.000000
3.124056 1.294026 0.000000
3.002164 1.243537 0.000000
2.886077 1.195452 0.000000
2.775267 1.149553 0.000000
2.669733 1.105840 0.000000
2.568997 1.064113 0.000000
2.473057 1.024374 0.000000
2.381478 0.986441 0.000000
2.294261 0.950314 0.000000
2.211007 0.915829 0.000000
2.131718 0.882987 0.000000
2.056033 0.851637 0.000000
1.983952 0.821780 0.000000
1.915148 0.793280 0.000000
1.849620 0.766138 0.000000
1.787070 0.740229 0.000000
1.727499 0.715554 0.000000
1.670636 0.692000 0.000000
1.616481 0.669568 0.000000
1.564787 0.648156 0.000000
1.515555 0.627763 0.000000
1.468560 0.608298 0.000000
1.423804 0.589759 0.000000
1.381082 0.572063 0.000000
1.340394 0.555209 0.000000
1.301555 0.539122 0.000000
1.264566 0.523801 0.000000
1.229259 0.509176 0.000000
1.195633 0.495247 0.000000
1.163535 0.481952 0.000000
1.132966 0.469290 0.000000
1.103786 0.457203 0.000000
1.075995 0.445692 0.000000
1.049468 0.434704 0.000000
1.024204 0.424239 0.000000
1.000089 0.414250 0.000000
0.977122 0.404737 0.000000
0.955198 0.395656 0.000000
0.934319 0.387008 0.000000
0.982166 0.357479 0.000000
1.028886 0.374484 0.000000
1.080279 0.393189 0.000000
1.136811 0.413765 0.000000
1.198996 0.436399 0.000000
1.267400 0.461296 0.000000
1.342644 0.488682 0.000000
1.425412 0.518808 0.000000
1.516457 0.551945 0.000000
1.616607 0.588397 0.000000
1.726772 0.628494 0.000000
1.847953 0.672600 0.000000
1.981252 0.721117 0.000000
2.127882 0.774486 0.000000
2.289174 0.833191 0.000000
2.466595 0.897767 0.000000
2.661759 0.968801 0.000000
2.876438 1.046938 0.000000
3.112586 1.132889 0.000000
3.372349 1.227435 0.000000
3.658088 1.331435 0.000000
3.972401 1.445836 0.000000
4.318145 1.571676 0.000000
0.996824 0.314297 0.000000
1.044242 0.329248 0.000000
1.096402 0.345694 0.000000
1.153777 0.363785 0.000000
1.216890 0.383684 0.000000
1.286315 0.405574 0.000000
1.362682 0.429652 0.000000
1.446686 0.456138 0.000000
1.539090 0.485273 0.000000
1.640734 0.517321 0.000000
1.752543 0.552575 0.000000
1.875533 0.591353 0.000000
2.010821 0.634010 0.000000
2.159639 0.680932 0.000000
2.323338 0.732546 0.000000
2.503407 0.789321 0.000000
2.701484 0.851775 0.000000
2.919367 0.920473 0.000000
3.159040 0.996041 0.000000
3.422679 1.079167 0.000000
3.712682 1.170604 0.000000
4.031686 1.271186 0.000000
4.382590 1.381825 0.000000
1.009585 0.270517 0.000000
1.057610 0.283386 0.000000
1.110437 0.297541 0.000000
1.168547 0.313111 0.000000
1.232468 0.330239 0.000000
1.302782 0.349079 0.000000
1.380126 0.369804 0.000000
1.465205 0.392601 0.000000
1.558792 0.417677 0.000000
1.661738 0.445261 0.000000
1.774978 0.475604 0.000000
1.899542 0.508981 0.000000
2.036563 0.545695 0.000000
2.187285 0.586081 0.000000
2.353080 0.630506 0.000000
2.535454 0.679373 0.000000
2.736066 0.733127 0.000000
2.956739 0.792256 0.000000
3.199480 0.857298 0.000000
3.466494 0.928844 0.000000
3.760210 1.007545 0.000000
4.083297 1.094116 0.000000
4.438693 1.189344 0.000000
1.020424 0.226222 0.000000
1.068964 0.236984 0.000000
1.122359 0.248821 0.000000
1.181093 0.261842 0.000000
1.245700 0.276165 0.000000
1.316768 0.291920 0.000000
1.394943 0.309251 0.000000
1.480936 0.328316 0.000000
1.575527 0.349286 0.000000
1.679578 0.372353 0.000000
1.794034 0.397728 0.000000
1.919935 0.425639 0.000000
2.058427 0.456342 0.000000
2.210768 0.490115 0.000000
2.378343 0.527266 0.000000
2.562675 0.568131 0.000000
2.765441 0.613083 0.000000
2.988483 0.662531 0.000000
3.233829 0.716923 0.000000
3.503710 0.776754 0.000000
3.800579 0.842568 0.000000
4.127136 0.914964 0.000000
4.486347 0.994599 0.000000
1.029320 0.181497 0.000000
1.078284 0.190131 0.000000
1.132144 0.199628 0.000000
1.191390 0.210074 0.000000
1.256561 0.221566 0.000000
1.328248 0.234206 0.000000
1.407105 0.248111 0.000000
1.493847 0.263406 0.000000
1.589263 0.280230 0.000000
1.694221 0.298737 0.000000
1.809675 0.319095 0.000000
[...]
POINT_DATA 2725
VECTORS sol double
+12.000000 +0.000000 0
+11.086554 +4.592201 0
+0.480000 +0.000000 0
+0.443462 +0.183688 0
+11.184094 +4.349256 0
+11.276311 +4.104242 0
+11.363162 +3.857274 0
+11.444603 +3.608470 0
+11.520598 +3.357948 0
+11.591110 +3.105829 0
+11.656105 +2.852231 0
+11.715552 +2.597275 0
+11.769423 +2.341084 0
+11.817693 +2.083778 0
+11.860338 +1.825481 0
+11.897338 +1.566314 0
+11.928676 +1.306402 0
+11.954336 +1.045869 0
+11.974307 +0.784838 0
+11.988579 +0.523433 0
+11.997144 +0.261779 0
+11.135987 +4.470995 0
+11.230871 +4.227001 0
+11.320410 +3.980995 0
+11.404561 +3.733094 0
+11.483284 +3.483416 0
+11.556542 +3.232081 0
+11.624299 +2.979207 0
+11.686524 +2.724915 0
+11.743186 +2.469327 0
+11.794260 +2.212563 0
+11.839720 +1.954746 0
+11.879545 +1.695998 0
+11.913716 +1.436444 0
+11.942217 +1.176206 0
+11.965034 +0.915408 0
+11.982156 +0.654174 0
+11.993575 +0.392629 0
+11.999286 +0.130897 0
+11.475459 +0.000000 0
+10.984573 +0.000000 0
+10.480117 +0.000000 0
+10.009628 +0.000000 0
+9.527775 +0.000000 0
+9.079897 +0.000000 0
+8.622757 +0.000000 0
+8.199291 +0.000000 0
+7.768531 +0.000000 0
+7.370845 +0.000000 0
+6.967665 +0.000000 0
+6.596683 +0.000000 0
+6.221819 +0.000000 0
+5.878023 +0.000000 0
+5.531758 +0.000000 0
+5.215212 +0.000000 0
+4.897405 +0.000000 0
+4.607788 +0.000000 0
+4.317916 +0.000000 0
+4.054562 +0.000000 0
+3.791767 +0.000000 0
+3.553718 +0.000000 0
+3.316864 +0.000000 0
+3.102923 +0.000000 0
+2.890650 +0.000000 0
+2.699438 +0.000000 0
+2.510223 +0.000000 0
+2.340227 +0.000000 0
+2.172437 +0.000000 0
+2.022066 +0.000000 0
+1.874008 +0.000000 0
+1.741635 +0.000000 0
+1.611599 +0.000000 0
+1.495600 +0.000000 0
+1.381898 +0.000000 0
+1.280686 +0.000000 0
+1.181682 +0.000000 0
+1.093730 +0.000000 0
+1.007863 +0.000000 0
+0.931725 +0.000000 0
+0.857528 +0.000000 0
+0.791853 +0.000000 0
+0.727961 +0.000000 0
+0.671501 +0.000000 0
+0.616661 +0.000000 0
+0.568275 +0.000000 0
+0.521347 +0.000000 0
+11.733334 +0.000000 0
+11.225992 +0.000000 0
+10.727899 +0.000000 0
+10.240821 +0.000000 0
+9.764245 +0.000000 0
+9.299793 +0.000000 0
+8.846900 +0.000000 0
+8.407026 +0.000000 0
+7.979553 +0.000000 0
+7.565770 +0.000000 0
+7.165003 +0.000000 0
+6.778369 +0.000000 0
+6.405140 +0.000000 0
+6.046257 +0.000000 0
+5.700949 +0.000000 0
+5.369988 +0.000000 0
+5.052563 +0.000000 0
+4.749287 +0.000000 0
+4.459321 +0.000000 0
+4.183132 +0.000000 0
+3.919863 +0.000000 0
+3.669849 +0.000000 0
+3.432228 +0.000000 0
+3.207219 +0.000000 0
+2.993967 +0.000000 0
+2.792591 +0.000000 0
+2.602253 +0.000000 0
+2.422990 +0.000000 0
+2.253992 +0.000000 0
+2.095230 +0.000000 0
+1.945927 +0.000000 0
+1.806004 +0.000000 0
+1.674725 +0.000000 0
+1.551975 +0.000000 0
+1.437064 +0.000000 0
+1.329849 +0.000000 0
+1.229691 +0.000000 0
+1.136431 +0.000000 0
+1.049481 +0.000000 0
+0.968673 +0.000000 0
+0.893472 +0.000000 0
+0.823710 +0.000000 0
+0.758900 +0.000000 0
+0.698877 +0.000000 0
+0.643205 +0.000000 0
+0.591727 +0.000000 0
+0.544053 +0.000000 0
+0.500033 +0.000000 0
+0.479886 +0.010471 0
+0.479543 +0.020937 0
+0.478972 +0.031394 0
+0.478173 +0.041835 0
+0.477147 +0.052256 0
+0.475894 +0.062653 0
+0.474414 +0.073019 0
+0.472708 +0.083351 0
+0.470777 +0.093643 0
+0.468622 +0.103891 0
+0.466244 +0.114089 0
+0.463644 +0.124233 0
+0.460824 +0.134318 0
+0.457784 +0.144339 0
+0.454526 +0.154291 0
+0.451052 +0.164170 0
+0.447364 +0.173970 0
+0.479971 +0.005236 0
+0.479743 +0.015705 0
+0.479286 +0.026167 0
+0.478601 +0.036616 0
+0.477689 +0.047048 0
+0.476549 +0.057458 0
+0.475182 +0.067840 0
+0.473589 +0.078190 0
+0.471770 +0.088503 0
+0.469727 +0.098773 0
+0.467461 +0.108997 0
+0.464972 +0.119168 0
+0.462262 +0.129283 0
+0.459331 +0.139337 0
+0.456182 +0.149324 0
+0.452816 +0.159240 0
+0.449235 +0.169080 0
+0.445439 +0.178840 0
+0.481661 +0.199511 0
+0.525018 +0.217469 0
+0.569721 +0.235986 0
+0.620386 +0.256972 0
+0.672548 +0.278579 0
+0.731577 +0.303029 0
+0.792252 +0.328162 0
+0.860802 +0.356556 0
+0.931144 +0.385693 0
+1.010475 +0.418552 0
+1.091732 +0.452210 0
+1.183200 +0.490097 0
+1.276708 +0.528830 0
+1.381755 +0.572341 0
+1.488923 +0.616732 0
+1.609061 +0.666495 0
+1.731358 +0.717152 0
+1.868146 +0.773811 0
+2.007070 +0.831356 0
+2.162088 +0.895566 0
+2.319144 +0.960621 0
+2.493955 +1.033030 0
+2.670613 +1.106204 0
+2.866727 +1.187437 0
+3.064383 +1.269309 0
+3.283207 +1.359949 0
+3.503136 +1.451047 0
+3.745927 +1.551614 0
+3.989234 +1.652395 0
+4.257041 +1.763324 0
+4.524613 +1.874156 0
+4.818228 +1.995775 0
+5.110678 +2.116912 0
+5.430585 +2.249422 0
+5.748211 +2.380987 0
+6.094541 +2.524441 0
+6.437283 +2.666410 0
+6.809773 +2.820700 0
+7.177186 +2.972888 0
+7.575157 +3.137733 0
+7.966389 +3.299786 0
+8.388731 +3.474726 0
+8.802517 +3.646122 0
+9.247691 +3.830519 0
+9.682365 +4.010567 0
+10.148422 +4.203614 0
+10.601941 +4.391468 0
+0.461970 +0.191354 0
+0.502639 +0.208200 0
+0.546684 +0.226444 0
+0.594244 +0.246144 0
+0.645678 +0.267449 0
+0.701132 +0.290418 0
+0.761008 +0.315220 0
+0.825461 +0.341917 0
+0.894937 +0.370695 0
+0.969594 +0.401619 0
+1.049925 +0.434893 0
+1.136086 +0.470582 0
+1.228620 +0.508911 0
+1.327674 +0.549941 0
+1.433838 +0.593915 0
+1.547245 +0.640890 0
+1.668530 +0.691128 0
+1.797802 +0.744674 0
+1.935740 +0.801810 0
+2.082417 +0.862565 0
+2.238551 +0.927238 0
+2.404168 +0.995839 0
+2.580018 +1.068678 0
+2.766065 +1.145742 0
+2.963084 +1.227350 0
+3.170966 +1.313457 0
+3.390499 +1.404391 0
+3.621481 +1.500067 0
+3.864710 +1.600815 0
+4.119876 +1.706508 0
+4.387769 +1.817473 0
+4.667959 +1.933532 0
+4.961222 +2.055005 0
+5.266990 +2.181659 0
+5.586013 +2.313803 0
+5.917577 +2.451141 0
+6.262396 +2.593969 0
+6.619600 +2.741928 0
+6.989860 +2.895295 0
+7.372145 +3.053643 0
+7.767079 +3.217230 0
+8.173469 +3.385562 0
+8.591888 +3.558877 0
+9.020986 +3.736615 0
+9.461285 +3.918992 0
+9.911286 +4.105389 0
+10.371464 +4.296001 0
+10.840187 +4.490152 0
+10.392429 +3.777727 0
+9.514521 +3.454213 0
+8.660585 +3.140621 0
+7.840953 +2.840667 0
+7.062492 +2.556656 0
+6.329946 +2.290080 0
+5.646424 +2.041850 0
+5.013660 +1.812411 0
+4.432207 +1.601821 0
+3.901617 +1.409813 0
+3.420617 +1.235855 0
+2.987277 +1.079199 0
+2.599163 +0.938933 0
+2.253484 +0.814028 0
+1.947213 +0.703377 0
+1.677196 +0.605836 0
+1.440242 +0.520247 0
+1.233194 +0.445471 0
+1.052974 +0.380401 0
+0.896616 +0.323976 0
+0.761249 +0.275181 0
+0.644044 +0.233033 0
+0.542004 +0.196506 0
+10.587084 +3.332757 0
+9.725505 +3.056396 0
+8.876696 +2.785258 0
+8.053548 +2.523533 0
+7.265611 +2.274089 0
+6.519818 +2.038861 0
+5.820951 +1.819087 0
+5.171964 +1.615465 0
+4.574268 +1.428254 0
+4.027989 +1.257359 0
+3.532215 +1.102399 0
+3.085220 +0.962772 0
+2.684664 +0.837704 0
+2.327773 +0.726302 0
+2.011487 +0.627596 0
+1.732585 +0.540569 0
+1.487787 +0.464197 0
+1.273828 +0.397459 0
+1.087505 +0.339364 0
+0.925688 +0.288948 0
+0.785285 +0.245275 0
+0.663114 +0.207398 0
+0.555577 +0.174256 0
+10.744794 +2.875231 0
+9.890696 +2.642907 0
+9.043613 +2.413247 0
+8.216821 +2.189968 0
+7.421185 +1.975925 0
+6.665028 +1.773179 0
+5.954298 +1.583128 0
+5.292840 +1.406619 0
+4.682694 +1.244055 0
+4.124413 +1.095477 0
+3.617349 +0.960638 0
+3.159927 +0.839067 0
+2.749875 +0.730128 0
+2.384429 +0.633066 0
+2.060503 +0.547047 0
+1.774825 +0.471196 0
+1.524046 +0.404621 0
+1.304819 +0.346433 0
+1.113843 +0.295761 0
+0.947870 +0.251753 0
+0.803640 +0.213566 0
+0.677717 +0.180322 0
+0.566117 +0.151005 0
+10.870061 +2.408470 0
+10.015429 +2.217754 0
+9.165469 +2.028339 0
+8.333414 +1.843227 0
+7.530650 +1.664931 0
+6.766172 +1.495388 0
+6.046531 +1.335979 0
+5.376038 +1.187595 0
+4.757070 +1.050708 0
+4.190399 +0.925449 0
+3.675515 +0.811677 0
+3.210913 +0.709042 0
+2.794347 +0.617033 0
+2.423049 +0.535033 0
+2.093906 +0.462349 0
+1.803607 +0.398247 0
+1.548754 +0.341975 0
+1.325945 +0.292783 0
+1.131817 +0.249930 0
+0.963046 +0.212685 0
+0.816273 +0.180316 0
+0.687920 +0.152044 0
+0.573810 +0.126961 0
+10.964309 +1.934656 0
+10.101747 +1.783802 0
+9.244001 +1.633533 0
+8.404443 +1.486140 0
+7.594555 +1.343660 0
+6.823388 +1.207744 0
+6.097524 +1.079623 0
+5.421285 +0.960126 0
+4.797048 +0.849725 0
+4.225578 +0.748593 0
+3.706349 +0.656667 0
+3.237835 +0.573694 0
+2.817768 +0.499286 0
+2.443354 +0.432954 0
+2.111450 +0.374148 0
+1.818718 +0.322278 0
+1.561730 +0.276738 0
+1.337057 +0.236921 0
+1.141307 +0.202223 0
+0.971130 +0.172046 0
+0.823142 +0.145784 0
+0.693740 +0.122785 0
+0.578718 +0.102291 0
+11.027199 +1.455488 0
+10.149208 +1.343277 0
+9.278719 +1.231291 0
+8.429418 +1.121175 0
+7.612434 +1.014448 0
+6.836249 +0.912391 0
+6.106891 +0.815992 0
+5.428236 +0.725936 0
+4.802324 +0.642632 0
+4.229681 +0.566256 0
+3.709615 +0.496786 0
+3.240489 +0.434055 0
+2.819961 +0.377781 0
+2.445189 +0.327605 0
+2.113003 +0.283115 0
+1.820044 +0.243867 0
+1.562876 +0.209406 0
+1.338069 +0.179270 0
+1.142240 +0.153002 0
+0.972059 +0.130145 0
+0.824195 +0.110230 0
+0.695135 +0.092755 0
+0.580811 +0.077133 0
+11.056581 +0.972436 0
+10.154827 +0.898048 0
+9.266870 +0.823722 0
+8.406222 +0.750519 0
+7.582806 +0.679444 0
+6.803765 +0.611364 0
+6.073992 +0.546964 0
+5.396483 +0.486730 0
+4.772641 +0.430962 0
+4.202547 +0.379797 0
+3.685211 +0.333236 0
+3.218809 +0.291177 0
+2.800882 +0.253439 0
+2.428526 +0.219784 0
+2.098542 +0.189940 0
+1.807567 +0.163611 0
+1.552177 +0.140490 0
+1.328965 +0.120269 0
+1.134592 +0.102639 0
+0.965800 +0.087292 0
+0.819372 +0.073911 0
+0.692006 +0.062152 0
+0.579971 +0.051619 0
+11.047026 +0.486845 0
+10.112142 +0.449772 0
+9.203201 +0.412707 0
+8.331172 +0.376169 0
+7.503282 +0.340657 0
+6.724483 +0.306607 0
+5.997998 +0.274369 0
+5.325598 +0.244195 0
+4.707815 +0.216243 0
+4.144136 +0.190587 0
+3.633179 +0.167232 0
+3.172875 +0.146132 0
+2.760628 +0.127196 0
+2.393463 +0.110308 0
+2.068161 +0.095330 0
+1.781370 +0.082116 0
+1.529700 +0.070511 0
+1.309797 +0.060361 0
+1.118395 +0.051511 0
+0.952345 +0.043805 0
+0.808610 +0.037083 0
+0.684197 +0.031171 0
+0.575946 +0.025868 0
+10.830217 +3.939394 0
+10.282699 +3.995565 0
+10.724423 +4.168841 0
+9.945373 +3.612854 0
+9.393298 +3.647215 0
+9.824000 +3.815814 0
+9.077797 +3.293694 0
+8.536115 +3.312210 0
+8.949924 +3.473846 0
+8.240053 +2.986598 0
+7.718613 +2.993362 0
+8.112316 +3.146841 0
+7.440443 +2.694446 0
+6.945753 +2.692455 0
+7.317156 +2.836997 0
+6.684667 +2.419088 0
+6.220935 +2.410661 0
+6.568548 +2.545760 0
+5.977523 +2.162038 0
+5.546303 +2.148678 0
+5.869226 +2.274048 0
+5.319247 +1.923178 0
+4.922897 +1.906800 0
+5.220751 +2.022343 0
+4.711837 +1.703071 0
+4.350789 +1.684968 0
+4.623652 +1.790754 0
+4.156273 +1.501950 0
+3.829210 +1.482824 0
+4.077554 +1.579063 0
+3.651035 +1.319177 0
+3.356687 +1.299754 0
+3.581310 +1.386773 0
+3.194493 +1.154102 0
+2.931176 +1.134936 0
+3.133139 +1.213160 0
+2.784440 +1.005888 0
+2.550193 +0.987389 0
+2.730755 +1.057315 0
+2.418529 +0.873661 0
+2.210938 +0.856018 0
+2.371499 +0.918191 0
+2.092970 +0.756035 0
+1.910404 +0.739650 0
+2.052449 +0.794649 0
+1.805519 +0.652190 0
+1.645475 +0.637074 0
+1.770534 +0.685494 0
+1.552948 +0.560956 0
+1.413014 +0.547075 0
+1.522617 +0.589508 0
+1.331346 +0.480917 0
+1.209922 +0.468452 0
+1.305572 +0.505480 0
+1.138318 +0.411212 0
+1.033197 +0.400047 0
+1.116345 +0.432230 0
+0.970713 +0.350710 0
+0.879960 +0.340751 0
+0.951995 +0.368622 0
+0.825270 +0.298249 0
+0.747471 +0.289516 0
+0.809714 +0.313580 0
+0.699500 +0.252958 0
+0.633101 +0.245348 0
+0.686824 +0.266085 0
+0.590412 +0.213807 0
+0.534232 +0.207271 0
+0.580724 +0.225159 0
+0.494443 +0.179570 0
+0.488615 +0.189762 0
+11.007308 +3.467832 0
+10.499442 +3.558683 0
+10.924623 +3.705614 0
+10.151639 +3.192961 0
+9.621993 +3.256121 0
+10.054053 +3.404969 0
+9.294364 +2.918520 0
+8.779145 +2.966659 0
+9.192308 +3.108399 0
+8.455282 +2.651116 0
+7.957304 +2.685625 0
+8.355403 +2.821610 0
+7.650413 +2.395783 0
+7.173450 +2.418637 0
+7.552235 +2.547536 0
+6.882416 +2.153129 0
+6.433528 +2.167449 0
+6.790110 +2.288410 0
+6.155974 +1.924371 0
+5.741544 +1.933157 0
+6.073122 +2.045355 0
+5.484954 +1.713617 0
+5.099881 +1.716345 0
+5.407634 +1.820283 0
+4.861849 +1.518297 0
+4.509546 +1.517177 0
+4.791999 +1.612439 0
+4.291181 +1.339672 0
+3.970393 +1.335476 0
+4.228011 +1.422277 0
+3.770325 +1.176809 0
+3.481339 +1.170789 0
+3.714546 +1.249309 0
+3.299001 +1.029542 0
+3.040561 +1.022439 0
+3.250315 +1.093027 0
+2.875902 +0.897410 0
+2.645674 +0.889585 0
+2.833297 +0.952703 0
+2.497888 +0.779399 0
+2.293893 +0.771264 0
+2.460829 +0.827409 0
+2.162340 +0.674672 0
+1.982173 +0.666436 0
+2.129903 +0.716115 0
+1.865538 +0.582053 0
+1.707323 +0.574021 0
+1.837413 +0.617761 0
+1.603217 +0.500207 0
+1.466103 +0.492925 0
+1.579843 +0.531162 0
+1.375265 +0.429097 0
+1.255298 +0.422066 0
+1.354803 +0.455511 0
+1.175754 +0.366876 0
+1.071762 +0.360395 0
+1.158315 +0.389475 0
+1.002281 +0.312805 0
+0.912441 +0.306897 0
+0.987542 +0.332109 0
+0.851930 +0.265992 0
+0.774348 +0.260594 0
+0.839442 +0.282409 0
+0.721030 +0.225332 0
+0.654465 +0.220518 0
+0.711014 +0.239401 0
+0.606898 +0.190042 0
+0.549468 +0.185614 0
+0.599206 +0.202118 0
+0.505019 +0.158766 0
+0.500112 +0.169305 0
+11.159767 +2.988280 0
+10.674670 +3.106650 0
+11.090901 +3.230272 0
+10.311971 +2.757421 0
+9.809153 +2.850066 0
+10.236323 +2.976596 0
+9.459438 +2.525877 0
+8.969986 +2.602257 0
+9.382064 +2.723809 0
+8.622690 +2.299463 0
+8.144848 +2.359675 0
+8.545609 +2.477362 0
+7.808606 +2.080052 0
+7.352615 +2.127767 0
+7.736072 +2.239895 0
+7.032995 +1.871765 0
+6.601026 +1.908572 0
+6.963799 +2.014280 0
+6.298165 +1.675023 0
+5.895523 +1.703432 0
+6.233854 +1.801742 0
+5.612819 +1.491965 0
+5.239559 +1.513136 0
+5.554375 +1.604419 0
+4.977098 +1.322468 0
+4.634900 +1.338025 0
+4.924442 +1.421846 0
+4.392515 +1.166811 0
+4.081909 +1.178076 0
+4.346220 +1.254503 0
+3.860922 +1.025398 0
+3.579822 +1.032979 0
+3.819399 +1.102200 0
+3.379443 +0.897402 0
+3.126995 +0.902199 0
+3.342634 +0.964470 0
+2.946294 +0.782307 0
+2.721129 +0.785032 0
+2.914067 +0.840726 0
+2.559180 +0.679477 0
+2.359455 +0.680653 0
+2.531121 +0.730193 0
+2.215006 +0.588074 0
+2.038896 +0.588159 0
+2.190876 +0.632009 0
+1.910602 +0.507246 0
+1.756205 +0.506605 0
+1.890013 +0.545205 0
+1.643278 +0.436273 0
+1.508063 +0.435029 0
+1.625073 +0.468778 0
+1.409053 +0.374097 0
+1.291159 +0.372476 0
+1.393596 +0.402016 0
+1.204566 +0.319830 0
+1.102236 +0.318014 0
+1.191376 +0.343708 0
+1.026673 +0.272642 0
+0.938098 +0.270733 0
+1.015505 +0.293024 0
+0.871951 +0.231643 0
+0.795561 +0.229740 0
+0.862799 +0.249065 0
+0.737599 +0.196115 0
+0.671302 +0.194120 0
+0.730028 +0.210935 0
+0.619539 +0.165017 0
+0.561505 +0.162825 0
+0.613704 +0.177676 0
+0.512918 +0.137092 0
+0.509334 +0.148034 0
+11.284706 +2.501058 0
+10.815817 +2.643960 0
+11.229408 +2.746459 0
+10.432845 +2.310877 0
+9.962193 +2.432645 0
+10.379034 +2.535782 0
+9.578878 +2.120430 0
+9.114023 +2.223192 0
+9.526452 +2.324965 0
+8.740407 +1.933733 0
+8.284571 +2.018973 0
+8.687828 +2.118178 0
+7.922670 +1.751964 0
+7.485043 +1.822705 0
+7.872255 +1.917691 0
+7.137332 +1.577674 0
+6.724195 +1.636414 0
+7.091503 +1.726291 0
+6.396166 +1.413406 0
+6.008357 +1.461511 0
+6.353011 +1.545683 0
+5.700466 +1.259378 0
+5.341670 +1.298882 0
+5.661880 +1.376964 0
+5.055782 +1.116759 0
+4.726388 +1.148973 0
+5.021230 +1.220790 0
+4.463515 +0.985813 0
+4.163204 +1.011878 0
+4.432405 +1.077398 0
+3.922286 +0.866201 0
+3.651558 +0.887407 0
+3.895621 +0.946773 0
+3.433153 +0.758134 0
+3.189922 +0.775151 0
+3.409754 +0.828601 0
+2.993252 +0.660965 0
+2.776043 +0.674538 0
+2.972803 +0.722365 0
+2.600045 +0.574122 0
+2.407157 +0.584881 0
+2.582255 +0.627435 0
+2.250566 +0.496944 0
+2.080163 +0.505417 0
+2.235145 +0.543078 0
+1.941871 +0.428777 0
+1.791766 +0.435342 0
+1.928265 +0.468508 0
+1.669726 +0.368686 0
+1.538589 +0.373830 0
+1.658267 +0.402906 0
+1.431588 +0.316107 0
+1.317253 +0.320063 0
+1.421788 +0.345455 0
+1.223780 +0.270229 0
+1.124421 +0.273233 0
+1.215415 +0.295328 0
+1.042963 +0.230319 0
+0.956799 +0.232546 0
+1.035866 +0.251733 0
+0.885996 +0.195689 0
+0.811069 +0.197213 0
+0.879846 +0.213882 0
+0.748995 +0.165491 0
+0.683708 +0.166402 0
+0.743975 +0.180970 0
+0.628491 +0.138973 0
+0.570618 +0.139144 0
+0.624476 +0.152110 0
+0.519541 +0.115054 0
+0.516602 +0.126168 0
+11.382822 +2.007794 0
+10.925537 +2.173224 0
+11.340932 +2.255852 0
+10.523026 +1.857505 0
+10.067652 +2.002580 0
+10.486689 +2.085932 0
+9.661182 +1.706656 0
+9.214170 +1.832812 0
+9.629330 +1.915393 0
+8.811175 +1.557586 0
+8.378373 +1.666562 0
+8.783332 +1.747113 0
+7.985518 +1.412476 0
+7.571754 +1.506115 0
+7.961180 +1.583577 0
+7.197785 +1.273758 0
+6.803424 +1.353285 0
+7.174261 +1.427049 0
+6.448822 +1.141651 0
+6.080031 +1.209393 0
+6.428336 +1.278674 0
+5.747647 +1.017812 0
+5.405959 +1.075312 0
+5.729622 +1.139691 0
+5.097550 +0.902881 0
+4.783631 +0.951523 0
+5.081736 +1.010819 0
+4.500045 +0.797171 0
+4.213850 +0.838187 0
+4.486221 +0.892363 0
+3.955785 +0.700832 0
+3.696116 +0.735203 0
+3.943104 +0.784333 0
+3.462686 +0.613517 0
+3.228929 +0.642274 0
+3.451432 +0.686534 0
+3.018992 +0.534931 0
+2.810037 +0.558951 0
+3.009203 +0.598569 0
+2.622398 +0.464675 0
+2.436661 +0.484682 0
+2.613908 +0.519940 0
+2.269911 +0.402225 0
+2.105672 +0.418844 0
+2.262555 +0.450051 0
+1.958141 +0.346983 0
+1.813743 +0.360776 0
+1.951961 +0.388269 0
+1.683716 +0.298355 0
+1.557458 +0.309798 0
+1.678574 +0.333889 0
+1.443798 +0.255839 0
+1.333395 +0.265229 0
+1.439205 +0.286276 0
+1.234222 +0.218694 0
+1.138172 +0.226397 0
+1.230292 +0.244721 0
+1.051869 +0.186365 0
+0.968444 +0.192636 0
+1.048505 +0.208561 0
+0.893251 +0.158229 0
+0.820831 +0.163273 0
+0.890507 +0.177132 0
+0.755195 +0.133714 0
+0.691727 +0.137593 0
+0.752814 +0.149744 0
+0.633796 +0.112112 0
+0.576921 +0.114757 0
+0.631622 +0.125637 0
+0.523968 +0.092514 0
+0.522048 +0.103842 0
+11.453845 +1.509848 0
+11.004311 +1.696333 0
+11.425644 +1.759911 0
+10.583715 +1.398884 0
+10.134799 +1.564896 0
+10.559379 +1.629127 0
+9.705992 +1.286365 0
+9.271038 +1.433824 0
+9.691019 +1.497628 0
+8.844504 +1.175102 0
+8.426573 +1.305080 0
+8.835563 +1.367510 0
+8.010213 +1.066506 0
+7.612797 +1.180443 0
+8.005542 +1.240663 0
+7.214351 +0.962181 0
+6.838574 +1.061389 0
+7.212383 +1.118926 0
+6.461107 +0.862864 0
+6.110294 +0.949039 0
+6.460924 +1.003171 0
+5.755676 +0.769425 0
+5.432120 +0.844158 0
+5.757573 +0.894518 0
+5.103574 +0.682752 0
+4.806306 +0.747198 0
+5.105941 +0.793640 0
+4.504674 +0.602950 0
+4.233528 +0.658335 0
+4.507188 +0.700804 0
+3.959430 +0.530167 0
+3.713196 +0.577534 0
+3.961507 +0.616102 0
+3.464877 +0.464067 0
+3.243741 +0.504585 0
+3.467293 +0.539327 0
+3.020749 +0.404654 0
+2.822864 +0.439154 0
+3.022949 +0.470262 0
+2.623836 +0.351525 0
+2.447748 +0.380820 0
+2.625801 +0.408510 0
+2.271108 +0.304292 0
+2.115235 +0.329099 0
+2.272838 +0.353614 0
+1.959281 +0.262522 0
+1.821974 +0.283476 0
+1.960775 +0.305070 0
+1.684944 +0.225765 0
+1.564530 +0.243418 0
+1.686192 +0.262349 0
+1.444870 +0.193589 0
+1.339466 +0.208391 0
+1.445787 +0.224939 0
+1.235276 +0.165485 0
+1.143392 +0.177864 0
+1.235954 +0.192277 0
+1.052788 +0.140993 0
+0.972959 +0.151307 0
+1.053372 +0.163840 0
+0.894418 +0.119697 0
+0.824800 +0.128182 0
+0.894724 +0.139103 0
+0.756554 +0.101087 0
+0.695343 +0.107909 0
+0.756581 +0.117510 0
+0.635391 +0.084613 0
+0.580430 +0.089814 0
+0.635126 +0.098441 0
+0.526555 +0.069659 0
+0.525587 +0.081135 0
+11.496509 +1.008456 0
+11.050972 +1.214849 0
+11.482828 +1.259922 0
+10.594244 +0.934413 0
+10.161985 +1.121610 0
+10.595610 +1.167187 0
+9.701938 +0.860288 0
+9.283028 +1.028493 0
+9.711252 +1.073991 0
+8.827204 +0.786470 0
+8.427867 +0.936843 0
+8.843020 +0.981470 0
+7.983226 +0.714128 0
+7.607192 +0.847923 0
+8.004105 +0.891042 0
+7.181446 +0.644464 0
+6.828931 +0.762813 0
+7.204417 +0.803962 0
+6.426811 +0.578168 0
+6.098628 +0.682353 0
+6.450043 +0.721132 0
+5.723882 +0.515885 0
+5.419774 +0.607137 0
+5.745537 +0.643278 0
+5.073388 +0.457879 0
+4.794129 +0.537526 0
+5.093689 +0.570888 0
+4.476778 +0.404430 0
+4.222022 +0.473679 0