# vtk DataFile Version 2.0
MyTitle
ASCII
DATASET UNSTRUCTURED_GRID
POINTS 1605 double
1.000000 0.000000 0.000000
0.923880 0.382683 0.000000
5.000000 0.000000 0.000000
4.619398 1.913417 0.000000
0.932008 0.362438 0.000000
0.939693 0.342020 0.000000
0.946930 0.321439 0.000000
0.953717 0.300706 0.000000
0.960050 0.279829 0.000000
0.965926 0.258819 0.000000
0.971342 0.237686 0.000000
0.976296 0.216440 0.000000
0.980785 0.195090 0.000000
0.984808 0.173648 0.000000
0.988362 0.152123 0.000000
0.991445 0.130526 0.000000
0.994056 0.108867 0.000000
0.996195 0.087156 0.000000
0.997859 0.065403 0.000000
0.999048 0.043619 0.000000
0.999762 0.021815 0.000000
0.927999 0.372583 0.000000
0.935906 0.352250 0.000000
0.943368 0.331750 0.000000
0.950380 0.311091 0.000000
0.956940 0.290285 0.000000
0.963045 0.269340 0.000000
0.968692 0.248267 0.000000
0.973877 0.227076 0.000000
0.978599 0.205777 0.000000
0.982855 0.184380 0.000000
0.986643 0.162895 0.000000
0.989962 0.141333 0.000000
0.992810 0.119704 0.000000
0.995185 0.098017 0.000000
0.997086 0.076284 0.000000
0.998513 0.054515 0.000000
0.999465 0.032719 0.000000
0.999941 0.010908 0.000000
1.033786 0.000000 0.000000
1.067572 0.000000 0.000000
1.108116 0.000000 0.000000
1.148659 0.000000 0.000000
1.197311 0.000000 0.000000
1.245963 0.000000 0.000000
1.304345 0.000000 0.000000
1.362728 0.000000 0.000000
1.432787 0.000000 0.000000
1.502845 0.000000 0.000000
1.586916 0.000000 0.000000
1.670987 0.000000 0.000000
1.771872 0.000000 0.000000
1.872756 0.000000 0.000000
1.993818 0.000000 0.000000
2.114880 0.000000 0.000000
2.260154 0.000000 0.000000
2.405428 0.000000 0.000000
2.579757 0.000000 0.000000
2.754086 0.000000 0.000000
2.963280 0.000000 0.000000
3.172475 0.000000 0.000000
3.423509 0.000000 0.000000
3.674542 0.000000 0.000000
3.975783 0.000000 0.000000
4.277023 0.000000 0.000000
4.638512 0.000000 0.000000
1.016893 0.000000 0.000000
1.050679 0.000000 0.000000
1.087844 0.000000 0.000000
1.128387 0.000000 0.000000
1.172985 0.000000 0.000000
1.221637 0.000000 0.000000
1.275154 0.000000 0.000000
1.333536 0.000000 0.000000
1.397757 0.000000 0.000000
1.467816 0.000000 0.000000
1.544881 0.000000 0.000000
1.628951 0.000000 0.000000
1.721429 0.000000 0.000000
1.822314 0.000000 0.000000
1.933287 0.000000 0.000000
2.054349 0.000000 0.000000
2.187517 0.000000 0.000000
2.332791 0.000000 0.000000
2.492592 0.000000 0.000000
2.666921 0.000000 0.000000
2.858683 0.000000 0.000000
3.067878 0.000000 0.000000
3.297992 0.000000 0.000000
3.549026 0.000000 0.000000
3.825163 0.000000 0.000000
4.126403 0.000000 0.000000
4.457767 0.000000 0.000000
4.819256 0.000000 0.000000
4.998810 0.109074 0.000000
4.995241 0.218097 0.000000
4.989295 0.327016 0.000000
4.980973 0.435779 0.000000
4.970282 0.544334 0.000000
4.957224 0.652631 0.000000
4.941808 0.760617 0.000000
4.924039 0.868241 0.000000
4.903926 0.975452 0.000000
4.881480 1.082198 0.000000
4.856710 1.188429 0.000000
4.829629 1.294095 0.000000
4.800249 1.399145 0.000000
4.768585 1.503529 0.000000
4.734651 1.607197 0.000000
4.698463 1.710101 0.000000
4.660039 1.812190 0.000000
4.999703 0.054540 0.000000
4.997323 0.163595 0.000000
4.992565 0.272573 0.000000
4.985431 0.381420 0.000000
4.975924 0.490086 0.000000
4.964048 0.598518 0.000000
4.949810 0.706666 0.000000
4.933217 0.814477 0.000000
4.914275 0.921901 0.000000
4.892994 1.028886 0.000000
4.869385 1.135381 0.000000
4.843458 1.241336 0.000000
4.815226 1.346700 0.000000
4.784702 1.451423 0.000000
4.751900 1.555456 0.000000
4.716838 1.658748 0.000000
4.679530 1.761250 0.000000
4.639995 1.862915 0.000000
4.285426 1.775082 0.000000
3.951454 1.636746 0.000000
3.673144 1.521466 0.000000
3.394835 1.406187 0.000000
3.162910 1.310120 0.000000
2.930985 1.214054 0.000000
2.737714 1.133998 0.000000
2.544444 1.053943 0.000000
2.383385 0.987230 0.000000
2.222326 0.920517 0.000000
2.088110 0.864923 0.000000
1.953894 0.809329 0.000000
1.842048 0.763001 0.000000
1.730201 0.716673 0.000000
1.636996 0.678066 0.000000
1.543790 0.639459 0.000000
1.466119 0.607286 0.000000
1.388448 0.575114 0.000000
1.323722 0.548304 0.000000
1.258996 0.521493 0.000000
1.205058 0.499151 0.000000
1.151120 0.476809 0.000000
1.106171 0.458191 0.000000
1.061222 0.439573 0.000000
1.023765 0.424057 0.000000
0.986308 0.408542 0.000000
0.955094 0.395613 0.000000
4.452412 1.844249 0.000000
4.118440 1.705914 0.000000
3.812299 1.579106 0.000000
3.533989 1.463826 0.000000
3.278872 1.358153 0.000000
3.046947 1.262087 0.000000
2.834350 1.174026 0.000000
2.641079 1.093971 0.000000
2.463914 1.020587 0.000000
2.302855 0.953874 0.000000
2.155218 0.892720 0.000000
2.021002 0.837126 0.000000
1.897971 0.786165 0.000000
1.786124 0.739837 0.000000
1.683599 0.697369 0.000000
1.590393 0.658762 0.000000
1.504955 0.623373 0.000000
1.427284 0.591200 0.000000
1.356085 0.561709 0.000000
1.291359 0.534898 0.000000
1.232027 0.510322 0.000000
1.178089 0.487980 0.000000
1.128645 0.467500 0.000000
1.083697 0.448882 0.000000
1.042494 0.431815 0.000000
1.005037 0.416300 0.000000
0.970701 0.402078 0.000000
0.939487 0.389148 0.000000
1.003190 0.365131 0.000000
1.079386 0.392864 0.000000
1.170822 0.426144 0.000000
1.280545 0.466080 0.000000
1.412213 0.514003 0.000000
1.570214 0.571511 0.000000
1.759815 0.640520 0.000000
1.987337 0.723331 0.000000
2.260363 0.822705 0.000000
2.587994 0.941953 0.000000
2.981152 1.085050 0.000000
3.452940 1.256768 0.000000
4.019087 1.462828 0.000000
1.018162 0.321025 0.000000
1.095495 0.345408 0.000000
1.188296 0.374668 0.000000
1.299656 0.409780 0.000000
1.433289 0.451914 0.000000
1.593648 0.502475 0.000000
1.786079 0.563149 0.000000
2.016997 0.635957 0.000000
2.294097 0.723326 0.000000
2.626618 0.828170 0.000000
3.025643 0.953982 0.000000
3.504473 1.104956 0.000000
4.079069 1.286126 0.000000
1.031196 0.276308 0.000000
1.109519 0.297295 0.000000
1.203508 0.322479 0.000000
1.316294 0.352700 0.000000
1.451637 0.388965 0.000000
1.614049 0.432483 0.000000
1.808944 0.484705 0.000000
2.042817 0.547371 0.000000
2.323465 0.622571 0.000000
2.660243 0.712810 0.000000
3.064376 0.821097 0.000000
3.549335 0.951042 0.000000
4.131287 1.106975 0.000000
1.042266 0.231065 0.000000
1.121431 0.248615 0.000000
1.216429 0.269676 0.000000
1.330426 0.294948 0.000000
1.467222 0.325275 0.000000
1.631378 0.361668 0.000000
1.828365 0.405339 0.000000
2.064749 0.457744 0.000000
2.348410 0.520630 0.000000
2.688803 0.596093 0.000000
3.097275 0.686649 0.000000
3.587441 0.795317 0.000000
4.175641 0.925717 0.000000
1.051353 0.185382 0.000000
1.131208 0.199463 0.000000
1.227034 0.216359 0.000000
1.342025 0.236635 0.000000
1.480014 0.260966 0.000000
1.645601 0.290164 0.000000
1.844305 0.325201 0.000000
2.082750 0.367245 0.000000
2.368884 0.417698 0.000000
2.712245 0.478242 0.000000
3.124278 0.550895 0.000000
3.618718 0.638078 0.000000
4.212046 0.742697 0.000000
1.058439 0.139346 0.000000
1.138832 0.149930 0.000000
1.235303 0.162631 0.000000
1.351069 0.177872 0.000000
1.489988 0.196161 0.000000
1.656691 0.218108 0.000000
1.856735 0.244444 0.000000
2.096787 0.276047 0.000000
2.384849 0.313971 0.000000
2.730524 0.359480 0.000000
3.145334 0.414091 0.000000
3.643106 0.479624 0.000000
4.240433 0.558264 0.000000
1.063510 0.093045 0.000000
1.144288 0.100112 0.000000
1.241222 0.108593 0.000000
1.357542 0.118770 0.000000
1.497127 0.130982 0.000000
1.664628 0.145636 0.000000
1.865630 0.163221 0.000000
2.106832 0.184324 0.000000
2.396275 0.209647 0.000000
2.743606 0.240034 0.000000
3.160403 0.276499 0.000000
3.660560 0.320257 0.000000
4.260748 0.372767 0.000000
1.066556 0.046567 0.000000
1.147566 0.050104 0.000000
1.244777 0.054348 0.000000
1.361431 0.059441 0.000000
1.501415 0.065553 0.000000
1.669396 0.072887 0.000000
1.870974 0.081688 0.000000
2.112867 0.092250 0.000000
2.403139 0.104923 0.000000
2.751465 0.120132 0.000000
3.169456 0.138381 0.000000
3.671045 0.160281 0.000000
4.272952 0.186561 0.000000
0.971266 0.353512 0.000000
0.994749 0.386837 0.000000
0.963276 0.374598 0.000000
1.041040 0.378908 0.000000
1.070304 0.416219 0.000000
1.032527 0.401528 0.000000
1.124836 0.409407 0.000000
1.160971 0.451477 0.000000
1.115638 0.433848 0.000000
1.225684 0.446112 0.000000
1.269771 0.493787 0.000000
1.215371 0.472632 0.000000
1.346379 0.490042 0.000000
1.400330 0.544559 0.000000
1.335051 0.519173 0.000000
1.491213 0.542757 0.000000
1.557002 0.605485 0.000000
1.478666 0.575022 0.000000
1.665015 0.606016 0.000000
1.745008 0.678597 0.000000
1.651005 0.642041 0.000000
1.873576 0.681926 0.000000
1.970616 0.766330 0.000000
1.857812 0.722464 0.000000
2.123179 0.772774 0.000000
2.241344 0.871611 0.000000
2.105980 0.818971 0.000000
2.423602 0.882119 0.000000
2.566219 0.997948 0.000000
2.403782 0.934780 0.000000
2.783910 1.013260 0.000000
2.956068 1.149552 0.000000
2.761144 1.073750 0.000000
3.216280 1.170630 0.000000
3.423887 1.331477 0.000000
3.189978 1.240515 0.000000
3.735125 1.359474 0.000000
3.985271 1.549787 0.000000
3.704579 1.440632 0.000000
4.357594 1.586035 0.000000
4.322110 1.680781 0.000000
0.985761 0.310809 0.000000
1.010676 0.343078 0.000000
0.978669 0.332214 0.000000
1.056464 0.333102 0.000000
1.087441 0.369136 0.000000
1.048957 0.356073 0.000000
1.141624 0.359953 0.000000
1.179559 0.400406 0.000000
1.133411 0.384741 0.000000
1.243976 0.392224 0.000000
1.290101 0.437930 0.000000
1.234830 0.419168 0.000000
1.366473 0.430847 0.000000
1.422751 0.482959 0.000000
1.356426 0.460445 0.000000
1.513469 0.477195 0.000000
1.581931 0.536993 0.000000
1.502341 0.509976 0.000000
1.689864 0.532812 0.000000
1.772947 0.601835 0.000000
1.677439 0.569414 0.000000
1.901538 0.599553 0.000000
2.002167 0.679644 0.000000
1.887557 0.640739 0.000000
2.155547 0.679641 0.000000
2.277230 0.773015 0.000000
2.139699 0.726330 0.000000
2.459508 0.775480 0.000000
2.607306 0.885061 0.000000
2.442033 0.828960 0.000000
2.825155 0.890768 0.000000
3.003397 1.019516 0.000000
2.805082 0.952198 0.000000
3.263931 1.029113 0.000000
3.478707 1.180862 0.000000
3.240740 1.100084 0.000000
3.790462 1.195128 0.000000
4.049078 1.374477 0.000000
[...]
POINT_DATA 1605
VECTORS sol double
+12.000000 +0.000000 0
+11.086554 +4.592201 0
+0.480000 +0.000000 0
+0.443462 +0.183688 0
+11.184094 +4.349256 0
+11.276311 +4.104242 0
+11.363162 +3.857274 0
+11.444603 +3.608470 0
+11.520598 +3.357948 0
+11.591110 +3.105829 0
+11.656105 +2.852231 0
+11.715552 +2.597275 0
+11.769423 +2.341084 0
+11.817693 +2.083778 0
+11.860338 +1.825481 0
+11.897338 +1.566314 0
+11.928676 +1.306402 0
+11.954336 +1.045869 0
+11.974307 +0.784838 0
+11.988579 +0.523433 0
+11.997144 +0.261779 0
+11.135987 +4.470995 0
+11.230871 +4.227001 0
+11.320410 +3.980995 0
+11.404561 +3.733094 0
+11.483284 +3.483416 0
+11.556542 +3.232081 0
+11.624299 +2.979207 0
+11.686524 +2.724915 0
+11.743186 +2.469327 0
+11.794260 +2.212563 0
+11.839720 +1.954746 0
+11.879545 +1.695998 0
+11.913716 +1.436444 0
+11.942217 +1.176206 0
+11.965034 +0.915408 0
+11.982156 +0.654174 0
+11.993575 +0.392629 0
+11.999286 +0.130897 0
+11.228451 +0.000000 0
+10.528990 +0.000000 0
+9.772623 +0.000000 0
+9.094924 +0.000000 0
+8.370808 +0.000000 0
+7.729849 +0.000000 0
+7.053361 +0.000000 0
+6.461942 +0.000000 0
+5.845454 +0.000000 0
+5.313156 +0.000000 0
+4.765114 +0.000000 0
+4.297691 +0.000000 0
+3.822230 +0.000000 0
+3.421517 +0.000000 0
+3.018632 +0.000000 0
+2.682933 +0.000000 0
+2.349120 +0.000000 0
+2.073942 +0.000000 0
+1.803116 +0.000000 0
+1.582072 +0.000000 0
+1.366582 +0.000000 0
+1.192298 +0.000000 0
+1.023855 +0.000000 0
+0.888740 +0.000000 0
+0.759165 +0.000000 0
+0.655991 +0.000000 0
+0.557730 +0.000000 0
+11.604614 +0.000000 0
+10.870287 +0.000000 0
+10.140237 +0.000000 0
+9.424643 +0.000000 0
+8.721605 +0.000000 0
+8.040758 +0.000000 0
+7.379992 +0.000000 0
+6.747944 +0.000000 0
+6.142113 +0.000000 0
+5.569780 +0.000000 0
+5.027954 +0.000000 0
+4.522358 +0.000000 0
+4.049514 +0.000000 0
+3.613557 +0.000000 0
+3.210617 +0.000000 0
+2.843366 +0.000000 0
+2.507716 +0.000000 0
+2.205107 +0.000000 0
+1.931429 +0.000000 0
+1.687178 +0.000000 0
+1.468416 +0.000000 0
+1.274985 +0.000000 0
+1.103271 +0.000000 0
+0.952715 +0.000000 0
+0.820128 +0.000000 0
+0.704755 +0.000000 0
+0.603874 +0.000000 0
+0.516680 +0.000000 0
+0.479886 +0.010471 0
+0.479543 +0.020937 0
+0.478972 +0.031394 0
+0.478173 +0.041835 0
+0.477147 +0.052256 0
+0.475894 +0.062653 0
+0.474414 +0.073019 0
+0.472708 +0.083351 0
+0.470777 +0.093643 0
+0.468622 +0.103891 0
+0.466244 +0.114089 0
+0.463644 +0.124233 0
+0.460824 +0.134318 0
+0.457784 +0.144339 0
+0.454526 +0.154291 0
+0.451052 +0.164170 0
+0.447364 +0.173970 0
+0.479971 +0.005236 0
+0.479743 +0.015705 0
+0.479286 +0.026167 0
+0.478601 +0.036616 0
+0.477689 +0.047048 0
+0.476549 +0.057458 0
+0.475182 +0.067840 0
+0.473589 +0.078190 0
+0.471770 +0.088503 0
+0.469727 +0.098773 0
+0.467461 +0.108997 0
+0.464972 +0.119168 0
+0.462262 +0.129283 0
+0.459331 +0.139337 0
+0.456182 +0.149324 0
+0.452816 +0.159240 0
+0.449235 +0.169080 0
+0.445439 +0.178840 0
+0.515275 +0.213434 0
+0.606057 +0.251037 0
+0.701377 +0.290520 0
+0.821089 +0.340106 0
+0.945918 +0.391812 0
+1.101540 +0.456273 0
+1.262557 +0.522968 0
+1.461644 +0.605433 0
+1.665862 +0.690023 0
+1.916072 +0.793663 0
+2.170304 +0.898969 0
+2.478707 +1.026714 0
+2.788852 +1.155181 0
+3.161070 +1.309358 0
+3.531280 +1.462704 0
+3.970549 +1.644655 0
+4.402392 +1.823530 0
+4.908717 +2.033257 0
+5.400495 +2.236958 0
+5.970056 +2.472878 0
+6.516456 +2.699204 0
+7.141450 +2.958085 0
+7.733618 +3.203370 0
+8.402615 +3.480477 0
+9.028726 +3.739821 0
+9.727518 +4.029270 0
+10.373736 +4.296942 0
+0.477350 +0.197725 0
+0.557907 +0.231093 0
+0.651108 +0.269698 0
+0.757699 +0.313849 0
+0.880194 +0.364588 0
+1.019289 +0.422203 0
+1.177933 +0.487916 0
+1.356640 +0.561939 0
+1.558749 +0.645655 0
+1.784408 +0.739126 0
+2.037253 +0.843858 0
+2.316828 +0.959662 0
+2.626928 +1.088109 0
+2.966223 +1.228650 0
+3.338491 +1.382848 0
+3.741263 +1.549682 0
+4.178114 +1.730632 0
+4.645224 +1.924115 0
+5.145805 +2.131462 0
+5.674573 +2.350485 0
+6.234287 +2.582326 0
+6.818224 +2.824201 0
+7.428691 +3.077065 0
+8.057712 +3.337614 0
+8.707235 +3.606655 0
+9.368357 +3.880501 0
+10.042836 +4.159879 0
+10.721265 +4.440893 0
+9.984893 +3.627418 0
+8.674489 +3.145718 0
+7.400605 +2.679913 0
+6.202026 +2.243591 0
+5.107288 +1.846342 0
+4.134904 +1.494218 0
+3.293571 +1.189921 0
+2.583285 +0.933195 0
+1.997156 +0.721420 0
+1.523530 +0.550330 0
+1.148009 +0.414711 0
+0.855069 +0.308992 0
+0.628841 +0.227578 0
+10.188582 +3.204812 0
+8.890592 +2.789686 0
+7.608487 +2.382512 0
+6.389225 +1.997749 0
+5.268096 +1.645602 0
+4.268262 +1.332503 0
+3.401196 +1.061466 0
+2.668273 +0.832587 0
+2.063068 +0.643692 0
+1.573839 +0.491042 0
+1.185774 +0.370000 0
+0.882640 +0.275548 0
+0.647187 +0.202474 0
+10.350409 +2.767878 0
+9.057527 +2.417012 0
+7.767865 +2.069094 0
+6.532359 +1.737668 0
+5.390894 +1.432765 0
+4.370028 +1.160827 0
+3.483294 +0.925004 0
+2.733092 +0.725670 0
+2.113333 +0.561075 0
+1.612204 +0.428023 0
+1.214576 +0.322486 0
+0.903680 +0.240045 0
+0.661247 +0.175985 0
+10.475682 +2.320437 0
+9.179452 +2.031452 0
+7.880663 +1.742634 0
+6.631913 +1.465635 0
+5.475470 +1.209593 0
+4.439738 +0.980557 0
+3.539367 +0.781598 0
+2.777296 +0.613268 0
+2.147589 +0.474204 0
+1.638346 +0.361757 0
+1.234219 +0.272534 0
+0.918093 +0.202768 0
+0.671108 +0.148345 0
+10.566261 +1.865066 0
+9.258111 +1.636007 0
+7.947660 +1.405815 0
+6.687963 +1.183853 0
+5.521566 +0.977854 0
+4.477026 +0.793098 0
+3.569054 +0.632354 0
+2.800574 +0.496240 0
+2.165583 +0.383740 0
+1.652073 +0.292748 0
+1.244564 +0.220527 0
+0.925804 +0.164006 0
+0.676792 +0.119769 0
+10.621752 +1.403745 0
+9.293015 +1.233138 0
+7.968380 +1.061040 0
+6.700090 +0.894429 0
+5.528832 +0.739303 0
+4.481609 +0.599873 0
+3.572128 +0.478407 0
+2.802750 +0.375477 0
+2.167180 +0.290372 0
+1.653280 +0.221522 0
+1.245532 +0.166860 0
+0.926753 +0.124050 0
+0.678259 +0.090460 0
+10.639451 +0.938141 0
+9.281402 +0.824948 0
+7.941073 +0.710488 0
+6.667379 +0.599371 0
+5.496831 +0.495675 0
+4.453287 +0.402321 0
+3.548500 +0.320915 0
+2.783780 +0.251894 0
+2.152356 +0.194808 0
+1.641951 +0.148618 0
+1.237105 +0.111940 0
+0.920900 +0.083199 0
+0.675407 +0.060606 0
+10.612991 +0.469756 0
+9.217997 +0.413319 0
+7.862826 +0.356172 0
+6.588510 +0.300605 0
+5.425083 +0.248677 0
+4.391965 +0.201882 0
+3.498226 +0.161051 0
+2.743762 +0.126421 0
+2.121207 +0.097773 0
+1.618161 +0.074591 0
+1.219325 +0.056181 0
+0.908227 +0.041749 0
+0.668063 +0.030392 0
+10.611753 +3.858697 0
+9.868610 +3.833287 0
+10.502590 +4.081804 0
+9.302401 +3.376211 0
+8.550022 +3.317640 0
+9.175467 +3.562014 0
+8.005008 +2.900626 0
+7.281061 +2.822945 0
+7.878195 +3.055556 0
+6.762605 +2.447452 0
+6.094567 +2.361567 0
+6.648774 +2.576951 0
+5.615380 +2.030587 0
+5.015080 +1.942555 0
+5.515694 +2.136798 0
+4.582932 +1.656391 0
+4.058483 +1.571672 0
+4.499030 +1.742436 0
+3.678558 +1.329131 0
+3.231917 +1.251422 0
+3.610048 +1.397908 0
+2.906215 +1.049900 0
+2.534606 +0.981353 0
+2.851593 +1.104114 0
+2.263472 +0.817636 0
+1.959407 +0.758623 0
+2.219338 +0.859270 0
+1.737225 +0.627520 0
+1.494717 +0.578706 0
+1.703560 +0.659563 0
+1.316583 +0.475585 0
+1.126378 +0.436113 0
+1.291097 +0.499877 0
+0.986037 +0.356240 0
+0.839270 +0.325011 0
+0.967119 +0.374475 0
+0.729864 +0.263882 0
+0.618311 +0.239644 0
+0.716456 +0.277531 0
+0.531711 +0.192835 0
+0.524027 +0.203350 0
+10.800574 +3.401365 0
+10.096968 +3.419764 0
+10.712325 +3.632236 0
+9.517505 +2.989840 0
+8.793048 +2.971424 0
+9.417060 +3.185627 0
+8.218885 +2.576006 0
+7.514248 +2.534597 0
+8.119603 +2.741031 0
+6.960753 +2.177840 0
+6.304127 +2.123594 0
+6.870781 +2.315796 0
+5.789152 +1.809101 0
+5.194878 +1.748420 0
+5.710084 +1.922518 0
+4.729308 +1.476790 0
+4.207488 +1.415360 0
+4.662626 +1.568799 0
+3.798136 +1.185502 0
+3.352126 +1.127293 0
+3.743626 +1.259100 0
+3.001575 +0.936651 0
+2.629513 +0.884149 0
+2.958090 +0.994689 0
+2.336613 +0.729061 0
+2.033005 +0.683529 0
+2.302604 +0.774193 0
+1.794979 +0.560037 0
+1.550892 +0.521429 0
+1.767927 +0.594398 0
+1.360301 +0.424430 0
+1.168552 +0.392915 0
+1.339824 +0.450477 0
+1.018478 +0.317851 0
+0.870079 +0.292684 0
+1.003285 +0.337396 0
+0.752815 +0.235192 0
+0.638870 +0.215319 0
+0.742073 +0.249790 0
+0.544303 +0.170797 0
+0.538504 +0.181985 0
+10.952284 +2.931747 0
+10.278691 +2.989161 0
+10.882968 +3.168496 0
+9.681762 +2.586182 0
+8.983890 +2.606354 0
+9.605798 +2.789916 0
+8.383279 +2.234849 0
+7.697615 +2.228643 0
+8.308280 +2.407636 0
+7.112412 +1.893060 0
+6.469269 +1.870219 0
+7.045566 +2.038129 0
+5.921918 +1.574480 0
+5.336765 +1.541312 0
+5.863396 +1.694103 0
+4.841039 +1.286224 0
+4.325167 +1.248416 0
+4.791786 +1.383435 0
+3.889366 +1.032962 0
+3.447102 +0.994641 0
+3.849149 +1.110798 0
+3.074309 +0.816318 0
+2.704516 +0.780237 0
+3.042244 +0.877729 0
+2.394618 +0.635772 0
+2.091173 +0.603242 0
+2.368412 +0.683237 0
+1.838344 +0.488061 0
+1.595290 +0.460188 0
+1.818531 +0.524584 0
+1.393128 +0.369871 0
+1.201880 +0.346735 0
+1.378130 +0.397555 0
+1.042838 +0.276929 0
+0.894411 +0.258159 0
+1.031706 +0.297691 0
+0.770057 +0.204688 0
+0.655072 +0.189481 0
+0.762172 +0.220154 0
+0.554353 +0.147925 0
+0.549905 +0.159531 0
+11.080841 +2.455533 0
+10.421821 +2.546375 0
+11.022844 +2.695269 0
+9.807340 +2.171353 0
+9.127969 +2.226630 0
+9.750553 +2.380328 0
+8.502305 +1.880775 0
+7.833563 +1.908192 0
+8.449350 +2.059496 0
+7.218643 +1.595707 0
+6.590618 +1.603751 0
+7.174458 +1.746606 0
+6.013724 +1.328716 0
+5.440522 +1.322981 0
+5.975728 +1.453546 0
+4.917743 +1.086234 0
+4.410994 +1.072185 0
+4.886088 +1.187868 0
+3.951748 +0.872711 0
+3.516273 +0.854505 0
+3.926044 +0.954175 0
+3.123940 +0.689831 0
+2.759101 +0.670419 0
+3.103506 +0.754141 0
+2.433882 +0.537426 0
+2.133492 +0.518376 0
+2.416752 +0.587214 0
+1.868155 +0.412500 0
+1.627589 +0.395453 0
+1.855297 +0.450778 0
+1.415911 +0.312645 0
+1.226135 +0.297932 0
+1.405996 +0.341620 0
+1.059625 +0.233997 0
+0.912158 +0.221717 0
+1.052378 +0.255742 0
+0.782070 +0.172777 0
+0.667034 +0.162375 0
+0.776864 +0.188929 0
+0.561976 +0.124364 0
+0.558661 +0.136270 0
+11.179097 +1.972194 0
+10.529688 +2.094485 0
+11.134375 +2.214769 0
+9.892397 +1.747153 0
+9.228212 +1.835606 0
+9.855110 +1.960304 0
+8.575437 +1.516186 0
+7.923472 +1.576077 0
+8.544782 +1.699664 0
+7.279807 +1.288214 0
+6.668471 +1.326441 0
+7.258192 +1.443744 0
+6.064434 +1.073779 0
+5.505924 +1.095196 0
+6.047048 +1.202833 0
+4.959086 +0.878390 0
+4.464558 +0.888056 0
+4.945178 +0.983657 0
+3.984911 +0.705989 0
+3.559209 +0.707971 0
+3.973877 +0.790453 0
+3.150131 +0.558160 0
+2.792888 +0.555540 0
+3.141469 +0.624877 0
+2.454187 +0.434873 0
+2.159653 +0.429582 0
+2.446435 +0.486626 0
+1.883807 +0.333812 0
+1.647551 +0.327718 0
+1.878053 +0.373568 0
+1.427775 +0.252999 0
+1.241150 +0.246880 0
+1.423272 +0.283106 0
+1.068743 +0.189357 0
+0.923234 +0.183643 0
+1.065267 +0.211895 0
+0.788657 +0.139660 0
+0.674812 +0.134229 0
+0.786172 +0.156379 0
+0.566790 +0.100162 0
+0.564808 +0.112347 0
+11.244045 +1.483125 0
+10.602963 +1.635714 0
+11.216120 +1.728296 0
+9.935821 +1.315903 0
+9.285238 +1.435984 0
+9.919565 +1.532288 0
+8.601589 +1.143568 0
+7.967502 +1.234835 0
+8.594601 +1.330745 0
+7.295455 +0.972843 0
+6.702666 +1.040447 0
+7.296732 +1.131893 0
+6.073666 +0.811590 0
+5.532670 +0.859722 0
+6.077101 +0.943911 0
+4.964753 +0.664270 0
+4.485535 +0.697445 0
+4.968734 +0.772378 0
+3.988603 +0.534064 0
+3.575618 +0.556160 0
+3.992338 +0.620889 0
+3.152682 +0.422308 0
+2.805635 +0.436475 0
+3.155863 +0.490925 0
+2.455929 +0.329043 0
+2.169464 +0.337535 0
+2.457519 +0.382339 0
+1.885554 +0.252645 0
+1.655029 +0.257501 0
+1.886640 +0.293537 0
+1.428626 +0.191411 0
+1.246815 +0.193968 0
+1.429704 +0.222436 0
+1.069433 +0.143228 0
+0.927571 +0.144228 0
+1.070171 +0.166458 0
+0.789918 +0.105601 0
+0.678398 +0.105248 0
+0.790053 +0.122749 0
+0.568764 +0.075477 0
+0.568284 +0.087893 0
+11.276443 +0.990452 0
+10.640175 +1.171860 0
+11.267083 +1.237408 0
+9.935197 +0.879773 0
+9.297441 +1.030028 0
+9.942226 +1.098424 0
+8.579055 +0.765311 0
+7.964533 +0.886752 0
+8.597427 +0.955097 0
+7.264320 +0.651703 0
+6.692528 +0.747825 0
+7.289213 +0.813235 0
+6.040792 +0.544022 0
+5.520362 +0.618304 0
+6.065377 +0.678677 0
+4.934454 +0.445451 0
+4.473682 +0.501784 0
+4.956451 +0.555610 0
+3.962692 +0.358223 0
+3.565340 +0.400220 0
+3.981234 +0.446762 0
+3.131534 +0.283300 0
+2.797231 +0.314129 0
+3.146560 +0.353300 0
+2.437749 +0.220618 0
+2.162843 +0.242934 0
+2.449591 +0.275123 0
+1.872560 +0.169493 0
+1.649962 +0.185333 0
+1.880909 +0.211275 0
+1.418872 +0.128415 0
+1.243082 +0.139598 0
+1.425324 +0.160090 0
+1.062359 +0.096078 0
+0.925122 +0.103768 0
+1.067064 +0.119783 0
+0.785465 +0.070796 0
+0.677719 +0.075628 0
+0.788423 +0.088277 0
+0.568447 +0.050521 0
+0.569133 +0.063056 0
+11.282629 +0.496048 0
+10.637069 +0.704493 0
+11.286317 +0.743655 0
+9.887451 +0.440708 0
+9.260831 +0.619716 0
+9.919161 +0.660614 0
+8.506674 +0.383597 0
+7.912208 +0.533916 0
+8.550644 +0.574867 0
+7.184432 +0.326786 0
+6.636919 +0.450540 0
+7.233991 +0.489817 0
+5.965007 +0.272895 0
+5.468533 +0.372664 0
+6.011145 +0.408979 0
+4.867950 +0.223506 0
+4.428847 +0.302514 0
+4.908058 +0.334928 0
+3.907181 +0.179766 0
+3.528357 +0.241320 0
+3.940497 +0.269367 0
+3.086772 +0.142179 0
+2.767703 +0.189424 0
+3.113570 +0.213039 0
+2.402555 +0.110726 0
+2.139827 +0.146499 0
+2.423599 +0.165907 0
+1.845347 +0.085064 0
+1.632379 +0.111764 0
+1.860825 +0.127405 0
+1.398528 +0.064458 0
+1.229963 +0.084180 0
+1.410203 +0.096541 0
+1.047431 +0.048223 0
+0.915853 +0.062560 0
+1.056013 +0.072227 0
+0.775382 +0.035516 0
+0.672638 +0.045556 0
+0.781183 +0.053204 0
+0.564917 +0.025315 0
+0.567176 +0.037945 0
+10.584343 +0.235058 0
+11.265207 +0.248071 0
+9.168796 +0.206852 0
+9.840150 +0.220427 0
+7.807118 +0.178280 0
+8.447814 +0.191889 0
+6.534378 +0.150486 0
+7.128823 +0.163583 0
+5.376713 +0.124501 0
+5.913554 +0.136621 0
+4.351002 +0.101079 0
+4.823363 +0.111903 0
+3.464801 +0.080638 0
+3.870206 +0.090007 0
+2.717218 +0.063300 0
+3.057055 +0.071190 0
+2.100568 +0.048956 0
+2.379228 +0.055441 0
+1.602400 +0.037349 0
+1.826288 +0.042567 0
+1.207531 +0.028130 0
+1.384113 +0.032256 0
+0.899761 +0.020903 0
+1.036807 +0.024131 0
+0.662952 +0.015215 0
+0.768126 +0.017771 0
+0.561943 +0.012665 0
+10.837641 +4.213272 0
+10.441743 +4.190874 0
+10.938920 +3.979559 0
+10.559974 +3.971333 0
+10.292432 +3.740827 0
+9.929674 +3.731449 0
+10.179008 +3.954918 0
+9.801316 +3.932642 0
+9.513112 +3.694098 0
+9.105217 +3.652224 0
+9.635565 +3.498755 0
+9.241851 +3.470245 0
+8.980806 +3.258085 0
+8.615066 +3.232727 0
+8.854771 +3.436664 0
+8.479239 +3.400279 0
+8.204068 +3.182629 0
+7.808615 +3.130593 0
+8.330180 +3.019585 0
+7.944251 +2.979109 0
+7.694242 +2.787078 0
+7.343334 +2.752353 0
+7.570972 +2.935840 0
+7.213767 +2.891562 0
+6.954304 +2.695781 0
+6.584915 +2.639035 0
+7.071120 +2.559799 0
+6.708007 +2.513054 0
+6.473408 +2.342239 0
+6.150442 +2.303365 0
+6.362725 +2.465758 0
+6.034424 +2.418101 0
+5.794389 +2.244988 0
+5.460009 +2.187673 0
+5.897943 +2.133142 0
+5.567495 +2.084407 0
+5.352402 +1.935200 0
+5.062975 +1.895100 0
+5.256512 +2.036218 0
+4.963641 +1.988629 0
+4.746600 +1.838428 0
+4.452276 +1.783633 0
+4.834549 +1.747519 0
+4.542595 +1.700000 0
+4.350328 +1.572182 0
+4.098155 +1.533475 0
+4.270276 +1.653759 0
+4.015929 +1.608749 0
+3.824450 +1.480980 0
+3.571921 +1.430827 0
+3.896771 +1.408060 0
+3.645607 +1.363992 0
+3.478110 +1.256644 0
+3.263913 +1.221095 0
+3.413156 +1.321629 0
+3.197619 +1.280856 0
+3.032845 +1.174314 0
+2.821216 +1.130059 0
+3.090829 +1.116629 0
+2.879937 +1.077380 0
+2.737630 +0.988971 0
+2.559864 +0.957606 0
+2.686107 +1.040024 0
+2.507539 +1.004399 0
+2.369131 +0.917274 0
+2.195594 +0.879440 0
+2.415467 +0.872555 0
+2.242200 +0.838754 0
+2.124072 +0.767272 0
+1.978992 +0.740278 0
+2.083309 +0.806598 0
+1.938422 +0.776426 0
+1.824781 +0.706497 0
+1.685304 +0.675039 0
+1.860405 +0.672018 0
+1.721005 +0.643771 0
+1.625127 +0.587027 0
+1.509666 +0.564714 0
+1.594025 +0.617154 0
+1.478701 +0.592285 0
+1.387328 +0.537131 0
+1.277277 +0.511609 0
+1.414406 +0.510915 0
+1.304304 +0.487905 0
+1.227982 +0.443589 0
+1.137602 +0.425560 0
+1.204534 +0.466367 0
+1.114351 +0.446355 0
+1.042218 +0.403539 0
+0.956855 +0.383283 0
+1.062438 +0.383817 0
+0.976925 +0.365488 0
+0.917102 +0.331366 0
+0.847472 +0.317111 0
+0.899823 +0.348436 0
+0.830471 +0.332680 0
+0.774278 +0.299879 0
+0.709165 +0.284129 0
+0.788857 +0.285126 0
+0.723414 +0.270802 0
+0.676700 +0.244762 0
+0.623792 +0.233690 0
+0.664761 +0.257566 0
+0.612393 +0.245428 0
+0.568468 +0.220440 0
+0.519839 +0.208471 0
+0.577636 +0.209235 0
+0.528046 +0.198161 0
+0.489782 +0.177914 0
+0.483974 +0.187985 0
+11.032973 +3.743089 0
+10.664487 +3.746378 0
+11.117962 +3.503416 0
+10.758705 +3.517556 0
+10.489532 +3.301421 0
+10.145251 +3.313101 0
+10.399338 +3.524113 0
+10.043607 +3.524618 0
+9.749441 +3.299996 0
+9.362462 +3.281939 0
+9.845983 +3.094979 0
+9.469867 +3.088626 0
+9.197059 +2.887446 0
+8.844406 +2.881404 0
+9.097855 +3.075968 0
+8.736446 +3.059586 0
+8.447009 +2.852940 0
+8.064879 +2.821773 0
+8.545770 +2.679893 0
+8.171759 +2.659363 0
+7.905467 +2.476575 0
+7.563786 +2.459337 0
+7.808611 +2.634903 0
+7.459860 +2.608164 0
+7.182155 +2.421597 0
+6.818964 +2.382466 0
+7.274373 +2.276858 0
+6.918047 +2.247551 0
+6.666161 +2.084958 0
+6.348812 +2.061354 0
+6.578588 +2.216636 0
+6.255189 +2.184371 0
+5.996334 +2.019361 0
+5.664669 +1.977263 0
+6.078410 +1.899984 0
+5.751588 +1.866435 0
+5.519603 +1.724488 0
+5.233301 +1.697585 0
+5.443501 +1.832404 0
+5.152859 +1.798030 0
+4.918101 +1.654988 0
+4.624384 +1.613179 0
+4.987971 +1.557805 0
+4.697611 +1.523313 0
+4.490017 +1.401885 0
+4.239369 +1.374401 0
+4.426373 +1.489135 0
+4.172651 +1.455317 0
+3.965469 +1.333818 0
+3.712392 +1.294587 0
+4.022996 +1.255798 0
+3.772218 +1.222720 0
+3.591498 +1.120923 0
+3.377862 +1.094756 0
+3.539809 +1.190473 0
+3.324015 +1.159030 0
+3.145906 +1.057888 0
+2.933184 +1.022668 0
+3.192060 +0.996139 0
+2.980896 +0.966003 0
+2.827590 +0.882326 0
+2.649840 +0.858664 0
+2.786570 +0.936983 0
+2.607317 +0.909003 0
+2.457942 +0.826438 0
+2.283852 +0.796196 0
+2.494209 +0.778251 0
+2.320439 +0.751887 0
+2.193467 +0.684386 0
+2.048770 +0.663840 0
+2.161523 +0.726747 0
+2.015791 +0.702732 0
+1.893538 +0.636633 0
+1.753197 +0.611179 0
+1.922042 +0.599685 0
+1.782086 +0.577423 0
+1.678971 +0.523842 0
+1.562925 +0.506410 0
+1.654093 +0.556125 0
+1.537753 +0.536075 0
+1.439589 +0.484012 0
+1.328674 +0.463198 0
+1.461255 +0.455920 0
+1.350542 +0.437609 0
+1.268573 +0.395820 0
+1.177584 +0.381589 0
+1.249820 +0.420226 0
+1.158688 +0.403961 0
+1.081242 +0.363580 0
+0.995012 +0.346942 0
+1.097415 +0.342453 0
+1.011239 +0.327740 0
+0.947003 +0.295585 0
+0.876670 +0.284213 0
+0.933195 +0.313863 0
+0.862875 +0.300947 0
+0.802413 +0.269997 0
+0.736224 +0.256927 0
+0.814052 +0.254214 0
+0.747702 +0.242576 0
+0.697323 +0.217985 0
+0.643246 +0.208965 0
+0.687821 +0.231651 0
+0.634068 +0.221526 0
+0.586066 +0.197751 0
+0.535275 +0.187470 0
+0.593150 +0.185807 0
+0.541567 +0.176443 0
+0.499529 +0.157088 0
+0.494969 +0.167609 0
+11.197266 +3.261870 0
+10.843928 +3.285621 0
+11.267170 +3.017548 0
+10.919720 +3.050686 0
+10.646676 +2.848513 0
+10.316816 +2.879143 0
+10.576042 +3.077371 0
+10.235987 +3.097779 0
+9.935381 +2.887433 0
+9.564123 +2.890666 0
+10.009467 +2.675175 0
+9.646171 +2.688737 0
+9.363098 +2.499763 0
+9.023146 +2.512360 0
+9.288186 +2.696096 0
+8.939731 +2.698850 0
+8.637271 +2.504311 0
+8.266037 +2.492607 0
+8.711818 +2.323537 0
+8.348196 +2.321934 0
+8.067584 +2.149760 0
+7.735098 +2.149516 0
+7.994927 +2.315716 0
+7.655416 +2.306350 0
+7.361438 +2.130345 0
+7.005402 +2.108710 0
+7.430053 +1.978306 0
+7.081241 +1.966210 0
+6.813609 +1.812970 0
+6.502943 +1.804522 0
+6.748622 +1.951560 0
+6.431357 +1.934661 0
+6.155546 +1.778977 0
+5.828226 +1.752224 0
+6.216338 +1.653146 0
+5.894635 +1.634825 0
+5.647313 +1.501170 0
+5.365660 +1.487531 0
+5.591023 +1.615049 0