# vtk DataFile Version 2.0
this shit
ASCII
DATASET POLYDATA
POINTS 121 double
-3.141593 -3.141593 0.000000
-2.513274 -3.141593 0.000000
-1.884956 -3.141593 0.000000
-1.256637 -3.141593 0.000000
-0.628319 -3.141593 0.000000
0.000000 -3.141593 0.000000
0.628319 -3.141593 0.000000
1.256637 -3.141593 0.000000
1.884956 -3.141593 0.000000
2.513274 -3.141593 0.000000
3.141593 -3.141593 0.000000
-3.141593 -2.513274 0.000000
-2.513274 -2.513274 0.000000
-1.884956 -2.513274 0.000000
-1.256637 -2.513274 0.000000
-0.628319 -2.513274 0.000000
0.000000 -2.513274 0.000000
0.628319 -2.513274 0.000000
1.256637 -2.513274 0.000000
1.884956 -2.513274 0.000000
2.513274 -2.513274 0.000000
3.141593 -2.513274 0.000000
-3.141593 -1.884956 0.000000
-2.513274 -1.884956 0.000000
-1.884956 -1.884956 0.000000
-1.256637 -1.884956 0.000000
-0.628319 -1.884956 0.000000
0.000000 -1.884956 0.000000
0.628319 -1.884956 0.000000
1.256637 -1.884956 0.000000
1.884956 -1.884956 0.000000
2.513274 -1.884956 0.000000
3.141593 -1.884956 0.000000
-3.141593 -1.256637 0.000000
-2.513274 -1.256637 0.000000
-1.884956 -1.256637 0.000000
-1.256637 -1.256637 0.000000
-0.628319 -1.256637 0.000000
0.000000 -1.256637 0.000000
0.628319 -1.256637 0.000000
1.256637 -1.256637 0.000000
1.884956 -1.256637 0.000000
2.513274 -1.256637 0.000000
3.141593 -1.256637 0.000000
-3.141593 -0.628319 0.000000
-2.513274 -0.628319 0.000000
-1.884956 -0.628319 0.000000
-1.256637 -0.628319 0.000000
-0.628319 -0.628319 0.000000
0.000000 -0.628319 0.000000
0.628319 -0.628319 0.000000
1.256637 -0.628319 0.000000
1.884956 -0.628319 0.000000
2.513274 -0.628319 0.000000
3.141593 -0.628319 0.000000
-3.141593 0.000000 0.000000
-2.513274 0.000000 0.000000
-1.884956 0.000000 0.000000
-1.256637 0.000000 0.000000
-0.628319 0.000000 0.000000
0.000000 0.000000 0.000000
0.628319 0.000000 0.000000
1.256637 0.000000 0.000000
1.884956 0.000000 0.000000
2.513274 0.000000 0.000000
3.141593 0.000000 0.000000
-3.141593 0.628319 0.000000
-2.513274 0.628319 0.000000
-1.884956 0.628319 0.000000
-1.256637 0.628319 0.000000
-0.628319 0.628319 0.000000
0.000000 0.628319 0.000000
0.628319 0.628319 0.000000
1.256637 0.628319 0.000000
1.884956 0.628319 0.000000
2.513274 0.628319 0.000000
3.141593 0.628319 0.000000
-3.141593 1.256637 0.000000
-2.513274 1.256637 0.000000
-1.884956 1.256637 0.000000
-1.256637 1.256637 0.000000
-0.628319 1.256637 0.000000
0.000000 1.256637 0.000000
0.628319 1.256637 0.000000
1.256637 1.256637 0.000000
1.884956 1.256637 0.000000
2.513274 1.256637 0.000000
3.141593 1.256637 0.000000
-3.141593 1.884956 0.000000
-2.513274 1.884956 0.000000
-1.884956 1.884956 0.000000
-1.256637 1.884956 0.000000
-0.628319 1.884956 0.000000
0.000000 1.884956 0.000000
0.628319 1.884956 0.000000
1.256637 1.884956 0.000000
1.884956 1.884956 0.000000
2.513274 1.884956 0.000000
3.141593 1.884956 0.000000
-3.141593 2.513274 0.000000
-2.513274 2.513274 0.000000
-1.884956 2.513274 0.000000
-1.256637 2.513274 0.000000
-0.628319 2.513274 0.000000
0.000000 2.513274 0.000000
0.628319 2.513274 0.000000
1.256637 2.513274 0.000000
1.884956 2.513274 0.000000
2.513274 2.513274 0.000000
3.141593 2.513274 0.000000
-3.141593 3.141593 0.000000
-2.513274 3.141593 0.000000
-1.884956 3.141593 0.000000
-1.256637 3.141593 0.000000
-0.628319 3.141593 0.000000
0.000000 3.141593 0.000000
0.628319 3.141593 0.000000
1.256637 3.141593 0.000000
1.884956 3.141593 0.000000
2.513274 3.141593 0.000000
3.141593 3.141593 0.000000
POLYGONS 200 800
3 0 1 12
3 0 12 11
3 1 2 13
3 1 13 12
3 2 3 14
3 2 14 13
3 3 4 15
3 3 15 14
3 4 5 16
3 4 16 15
3 5 6 17
3 5 17 16
3 6 7 18
3 6 18 17
3 7 8 19
3 7 19 18
3 8 9 20
3 8 20 19
3 9 10 21
3 9 21 20
3 11 12 23
3 11 23 22
3 12 13 24
3 12 24 23
3 13 14 25
3 13 25 24
3 14 15 26
3 14 26 25
3 15 16 27
3 15 27 26
3 16 17 28
3 16 28 27
3 17 18 29
3 17 29 28
3 18 19 30
3 18 30 29
3 19 20 31
3 19 31 30
3 20 21 32
3 20 32 31
3 22 23 34
3 22 34 33
3 23 24 35
3 23 35 34
3 24 25 36
3 24 36 35
3 25 26 37
3 25 37 36
3 26 27 38
3 26 38 37
3 27 28 39
3 27 39 38
3 28 29 40
3 28 40 39
3 29 30 41
3 29 41 40
3 30 31 42
3 30 42 41
3 31 32 43
3 31 43 42
3 33 34 45
3 33 45 44
3 34 35 46
3 34 46 45
3 35 36 47
3 35 47 46
3 36 37 48
3 36 48 47
3 37 38 49
3 37 49 48
3 38 39 50
3 38 50 49
3 39 40 51
3 39 51 50
3 40 41 52
3 40 52 51
3 41 42 53
3 41 53 52
3 42 43 54
3 42 54 53
3 44 45 56
3 44 56 55
3 45 46 57
3 45 57 56
3 46 47 58
3 46 58 57
3 47 48 59
3 47 59 58
3 48 49 60
3 48 60 59
3 49 50 61
3 49 61 60
3 50 51 62
3 50 62 61
3 51 52 63
3 51 63 62
3 52 53 64
3 52 64 63
3 53 54 65
3 53 65 64
3 55 56 67
3 55 67 66
3 56 57 68
3 56 68 67
3 57 58 69
3 57 69 68
3 58 59 70
3 58 70 69
3 59 60 71
3 59 71 70
3 60 61 72
3 60 72 71
3 61 62 73
3 61 73 72
3 62 63 74
3 62 74 73
3 63 64 75
3 63 75 74
3 64 65 76
3 64 76 75
3 66 67 78
3 66 78 77
3 67 68 79
3 67 79 78
3 68 69 80
3 68 80 79
3 69 70 81
3 69 81 80
3 70 71 82
3 70 82 81
3 71 72 83
3 71 83 82
3 72 73 84
3 72 84 83
3 73 74 85
3 73 85 84
3 74 75 86
3 74 86 85
3 75 76 87
3 75 87 86
3 77 78 89
3 77 89 88
3 78 79 90
3 78 90 89
3 79 80 91
3 79 91 90
3 80 81 92
3 80 92 91
3 81 82 93
3 81 93 92
3 82 83 94
3 82 94 93
3 83 84 95
3 83 95 94
3 84 85 96
3 84 96 95
3 85 86 97
3 85 97 96
3 86 87 98
3 86 98 97
3 88 89 100
3 88 100 99
3 89 90 101
3 89 101 100
3 90 91 102
3 90 102 101
3 91 92 103
3 91 103 102
3 92 93 104
3 92 104 103
3 93 94 105
3 93 105 104
3 94 95 106
3 94 106 105
3 95 96 107
3 95 107 106
3 96 97 108
3 96 108 107
3 97 98 109
3 97 109 108
3 99 100 111
3 99 111 110
3 100 101 112
3 100 112 111
3 101 102 113
3 101 113 112
3 102 103 114
3 102 114 113
3 103 104 115
3 103 115 114
3 104 105 116
3 104 116 115
3 105 106 117
3 105 117 116
3 106 107 118
3 106 118 117
3 107 108 119
3 107 119 118
3 108 109 120
3 108 120 119
POINT_DATA 121
SCALARS sol_0 double
LOOKUP_TABLE defaul
9.906004
9.612202
8.941807
8.907917
9.312954
9.251050
8.608093
8.634404
9.063707
9.883206
9.906004
9.373484
9.293364
8.932221
8.943621
9.040427
8.862729
8.288513
8.514737
9.197103
9.403524
9.373484
8.767675
8.708337
8.645782
8.611642
8.649863
8.430684
8.184605
8.471093
8.641126
8.950250
8.767675
8.220151
8.217724
8.221692
8.218624
8.076620
8.089579
8.077576
7.942437
8.452642
8.607567
8.220151
7.894408
8.033144
8.271839
8.151650
7.997976
8.509223
8.201093
7.851869
8.361521
8.274448
7.894408
8.095618
8.149152
8.263022
8.076713
8.360878
8.957911
8.360878
8.076713
8.263022
8.149152
8.095618
7.894408
8.274448
8.361521
7.851869
8.201093
8.509223
7.997976
8.151650
8.271839
8.033144
7.894408
8.220151
8.607567
8.452642
7.942437
8.077576
8.089579
8.076620
8.218624
8.221692
8.217724
8.220151
8.767675
8.950250
8.641126
8.471093
8.184605
8.430684
8.649863
8.611642
8.645782
8.708337
8.767675
9.373484
9.403524
9.197103
8.514737
8.288513
8.862729
9.040427
8.943621
8.932221
9.293364
9.373484
9.906004
9.883206
9.063707
8.634404
8.608093
9.251050
9.312954
8.907917
8.941807
9.612202
9.906004
