# vtk DataFile Version 2.0
this shit
ASCII
DATASET POLYDATA
POINTS 121 double
-0.628319 -0.628319 0.000000
-0.502655 -0.628319 0.000000
-0.376991 -0.628319 0.000000
-0.251327 -0.628319 0.000000
-0.125664 -0.628319 0.000000
0.000000 -0.628319 0.000000
0.125664 -0.628319 0.000000
0.251327 -0.628319 0.000000
0.376991 -0.628319 0.000000
0.502655 -0.628319 0.000000
0.628319 -0.628319 0.000000
-0.628319 -0.502655 0.000000
-0.502655 -0.502655 0.000000
-0.376991 -0.502655 0.000000
-0.251327 -0.502655 0.000000
-0.125664 -0.502655 0.000000
0.000000 -0.502655 0.000000
0.125664 -0.502655 0.000000
0.251327 -0.502655 0.000000
0.376991 -0.502655 0.000000
0.502655 -0.502655 0.000000
0.628319 -0.502655 0.000000
-0.628319 -0.376991 0.000000
-0.502655 -0.376991 0.000000
-0.376991 -0.376991 0.000000
-0.251327 -0.376991 0.000000
-0.125664 -0.376991 0.000000
0.000000 -0.376991 0.000000
0.125664 -0.376991 0.000000
0.251327 -0.376991 0.000000
0.376991 -0.376991 0.000000
0.502655 -0.376991 0.000000
0.628319 -0.376991 0.000000
-0.628319 -0.251327 0.000000
-0.502655 -0.251327 0.000000
-0.376991 -0.251327 0.000000
-0.251327 -0.251327 0.000000
-0.125664 -0.251327 0.000000
0.000000 -0.251327 0.000000
0.125664 -0.251327 0.000000
0.251327 -0.251327 0.000000
0.376991 -0.251327 0.000000
0.502655 -0.251327 0.000000
0.628319 -0.251327 0.000000
-0.628319 -0.125664 0.000000
-0.502655 -0.125664 0.000000
-0.376991 -0.125664 0.000000
-0.251327 -0.125664 0.000000
-0.125664 -0.125664 0.000000
0.000000 -0.125664 0.000000
0.125664 -0.125664 0.000000
0.251327 -0.125664 0.000000
0.376991 -0.125664 0.000000
0.502655 -0.125664 0.000000
0.628319 -0.125664 0.000000
-0.628319 0.000000 0.000000
-0.502655 0.000000 0.000000
-0.376991 0.000000 0.000000
-0.251327 0.000000 0.000000
-0.125664 0.000000 0.000000
0.000000 0.000000 0.000000
0.125664 0.000000 0.000000
0.251327 0.000000 0.000000
0.376991 0.000000 0.000000
0.502655 0.000000 0.000000
0.628319 0.000000 0.000000
-0.628319 0.125664 0.000000
-0.502655 0.125664 0.000000
-0.376991 0.125664 0.000000
-0.251327 0.125664 0.000000
-0.125664 0.125664 0.000000
0.000000 0.125664 0.000000
0.125664 0.125664 0.000000
0.251327 0.125664 0.000000
0.376991 0.125664 0.000000
0.502655 0.125664 0.000000
0.628319 0.125664 0.000000
-0.628319 0.251327 0.000000
-0.502655 0.251327 0.000000
-0.376991 0.251327 0.000000
-0.251327 0.251327 0.000000
-0.125664 0.251327 0.000000
0.000000 0.251327 0.000000
0.125664 0.251327 0.000000
0.251327 0.251327 0.000000
0.376991 0.251327 0.000000
0.502655 0.251327 0.000000
0.628319 0.251327 0.000000
-0.628319 0.376991 0.000000
-0.502655 0.376991 0.000000
-0.376991 0.376991 0.000000
-0.251327 0.376991 0.000000
-0.125664 0.376991 0.000000
0.000000 0.376991 0.000000
0.125664 0.376991 0.000000
0.251327 0.376991 0.000000
0.376991 0.376991 0.000000
0.502655 0.376991 0.000000
0.628319 0.376991 0.000000
-0.628319 0.502655 0.000000
-0.502655 0.502655 0.000000
-0.376991 0.502655 0.000000
-0.251327 0.502655 0.000000
-0.125664 0.502655 0.000000
0.000000 0.502655 0.000000
0.125664 0.502655 0.000000
0.251327 0.502655 0.000000
0.376991 0.502655 0.000000
0.502655 0.502655 0.000000
0.628319 0.502655 0.000000
-0.628319 0.628319 0.000000
-0.502655 0.628319 0.000000
-0.376991 0.628319 0.000000
-0.251327 0.628319 0.000000
-0.125664 0.628319 0.000000
0.000000 0.628319 0.000000
0.125664 0.628319 0.000000
0.251327 0.628319 0.000000
0.376991 0.628319 0.000000
0.502655 0.628319 0.000000
0.628319 0.628319 0.000000
POLYGONS 200 800
3 0 1 12
3 0 12 11
3 1 2 13
3 1 13 12
3 2 3 14
3 2 14 13
3 3 4 15
3 3 15 14
3 4 5 16
3 4 16 15
3 5 6 17
3 5 17 16
3 6 7 18
3 6 18 17
3 7 8 19
3 7 19 18
3 8 9 20
3 8 20 19
3 9 10 21
3 9 21 20
3 11 12 23
3 11 23 22
3 12 13 24
3 12 24 23
3 13 14 25
3 13 25 24
3 14 15 26
3 14 26 25
3 15 16 27
3 15 27 26
3 16 17 28
3 16 28 27
3 17 18 29
3 17 29 28
3 18 19 30
3 18 30 29
3 19 20 31
3 19 31 30
3 20 21 32
3 20 32 31
3 22 23 34
3 22 34 33
3 23 24 35
3 23 35 34
3 24 25 36
3 24 36 35
3 25 26 37
3 25 37 36
3 26 27 38
3 26 38 37
3 27 28 39
3 27 39 38
3 28 29 40
3 28 40 39
3 29 30 41
3 29 41 40
3 30 31 42
3 30 42 41
3 31 32 43
3 31 43 42
3 33 34 45
3 33 45 44
3 34 35 46
3 34 46 45
3 35 36 47
3 35 47 46
3 36 37 48
3 36 48 47
3 37 38 49
3 37 49 48
3 38 39 50
3 38 50 49
3 39 40 51
3 39 51 50
3 40 41 52
3 40 52 51
3 41 42 53
3 41 53 52
3 42 43 54
3 42 54 53
3 44 45 56
3 44 56 55
3 45 46 57
3 45 57 56
3 46 47 58
3 46 58 57
3 47 48 59
3 47 59 58
3 48 49 60
3 48 60 59
3 49 50 61
3 49 61 60
3 50 51 62
3 50 62 61
3 51 52 63
3 51 63 62
3 52 53 64
3 52 64 63
3 53 54 65
3 53 65 64
3 55 56 67
3 55 67 66
3 56 57 68
3 56 68 67
3 57 58 69
3 57 69 68
3 58 59 70
3 58 70 69
3 59 60 71
3 59 71 70
3 60 61 72
3 60 72 71
3 61 62 73
3 61 73 72
3 62 63 74
3 62 74 73
3 63 64 75
3 63 75 74
3 64 65 76
3 64 76 75
3 66 67 78
3 66 78 77
3 67 68 79
3 67 79 78
3 68 69 80
3 68 80 79
3 69 70 81
3 69 81 80
3 70 71 82
3 70 82 81
3 71 72 83
3 71 83 82
3 72 73 84
3 72 84 83
3 73 74 85
3 73 85 84
3 74 75 86
3 74 86 85
3 75 76 87
3 75 87 86
3 77 78 89
3 77 89 88
3 78 79 90
3 78 90 89
3 79 80 91
3 79 91 90
3 80 81 92
3 80 92 91
3 81 82 93
3 81 93 92
3 82 83 94
3 82 94 93
3 83 84 95
3 83 95 94
3 84 85 96
3 84 96 95
3 85 86 97
3 85 97 96
3 86 87 98
3 86 98 97
3 88 89 100
3 88 100 99
3 89 90 101
3 89 101 100
3 90 91 102
3 90 102 101
3 91 92 103
3 91 103 102
3 92 93 104
3 92 104 103
3 93 94 105
3 93 105 104
3 94 95 106
3 94 106 105
3 95 96 107
3 95 107 106
3 96 97 108
3 96 108 107
3 97 98 109
3 97 109 108
3 99 100 111
3 99 111 110
3 100 101 112
3 100 112 111
3 101 102 113
3 101 113 112
3 102 103 114
3 102 114 113
3 103 104 115
3 103 115 114
3 104 105 116
3 104 116 115
3 105 106 117
3 105 117 116
3 106 107 118
3 106 118 117
3 107 108 119
3 107 119 118
3 108 109 120
3 108 120 119
POINT_DATA 121
SCALARS sol_0 double
LOOKUP_TABLE defaul
6.700432
6.724929
6.752362
6.749775
6.719585
6.723320
6.693923
6.631674
6.551641
6.463606
6.372251
6.766149
6.753600
6.748523
6.759943
6.755238
6.744568
6.701807
6.632254
6.550014
6.464551
6.385782
6.813876
6.803828
6.798705
6.798444
6.796606
6.775840
6.723686
6.651115
6.573029
6.500703
6.444220
6.810009
6.818457
6.827262
6.836388
6.838953
6.815982
6.760231
6.690101
6.622477
6.563155
6.518752
6.753036
6.778458
6.808018
6.840463
6.866599
6.858334
6.807142
6.745067
6.684648
6.635983
6.597923
6.677640
6.710641
6.751500
6.800380
6.852026
6.880767
6.852026
6.800380
6.751500
6.710641
6.677640
6.597923
6.635983
6.684648
6.745067
6.807142
6.858334
6.866599
6.840463
6.808018
6.778458
6.753036
6.518752
6.563155
6.622477
6.690101
6.760231
6.815982
6.838953
6.836388
6.827262
6.818457
6.810009
6.444220
6.500703
6.573029
6.651115
6.723686
6.775840
6.796606
6.798444
6.798705
6.803828
6.813876
6.385782
6.464551
6.550014
6.632254
6.701807
6.744568
6.755238
6.759943
6.748523
6.753600
6.766149
6.372251
6.463606
6.551641
6.631674
6.693923
6.723320
6.719585
6.749775
6.752362
6.724929
6.700432
