# vtk DataFile Version 2.0
MyTitle
ASCII
DATASET UNSTRUCTURED_GRID
POINTS 565 double
0.400000 0.000000 0.000000
0.000000 0.400000 0.000000
-0.400000 0.000000 0.000000
0.000000 -0.400000 0.000000
0.000000 -1.500000 0.000000
1.000000 0.000000 0.000000
0.000000 1.500000 0.000000
-1.000000 0.000000 0.000000
0.333333 0.066667 0.000000
0.266667 0.133333 0.000000
0.200000 0.200000 0.000000
0.133333 0.266667 0.000000
0.066667 0.333333 0.000000
0.366667 0.033333 0.000000
0.300000 0.100000 0.000000
0.233333 0.166667 0.000000
0.166667 0.233333 0.000000
0.100000 0.300000 0.000000
0.033333 0.366667 0.000000
-0.066667 0.333333 0.000000
-0.133333 0.266667 0.000000
-0.200000 0.200000 0.000000
-0.266667 0.133333 0.000000
-0.333333 0.066667 0.000000
-0.033333 0.366667 0.000000
-0.100000 0.300000 0.000000
-0.166667 0.233333 0.000000
-0.233333 0.166667 0.000000
-0.300000 0.100000 0.000000
-0.366667 0.033333 0.000000
-0.333333 -0.066667 0.000000
-0.266667 -0.133333 0.000000
-0.200000 -0.200000 0.000000
-0.133333 -0.266667 0.000000
-0.066667 -0.333333 0.000000
-0.366667 -0.033333 0.000000
-0.300000 -0.100000 0.000000
-0.233333 -0.166667 0.000000
-0.166667 -0.233333 0.000000
-0.100000 -0.300000 0.000000
-0.033333 -0.366667 0.000000
0.066667 -0.333333 0.000000
0.133333 -0.266667 0.000000
0.200000 -0.200000 0.000000
0.266667 -0.133333 0.000000
0.333333 -0.066667 0.000000
0.033333 -0.366667 0.000000
0.100000 -0.300000 0.000000
0.166667 -0.233333 0.000000
0.233333 -0.166667 0.000000
0.300000 -0.100000 0.000000
0.366667 -0.033333 0.000000
0.318109 -1.422081 0.000000
0.579456 -1.222505 0.000000
0.771420 -0.954490 0.000000
0.900932 -0.650940 0.000000
0.975602 -0.329323 0.000000
0.163611 -1.479787 0.000000
0.457521 -1.333798 0.000000
0.683799 -1.094506 0.000000
0.843445 -0.805823 0.000000
0.944761 -0.491642 0.000000
0.993923 -0.165116 0.000000
0.975602 0.329323 0.000000
0.900932 0.650940 0.000000
0.771420 0.954490 0.000000
0.579456 1.222505 0.000000
0.318109 1.422081 0.000000
0.993923 0.165116 0.000000
0.944761 0.491642 0.000000
0.843445 0.805823 0.000000
0.683799 1.094506 0.000000
0.457521 1.333798 0.000000
0.163611 1.479787 0.000000
-0.318109 1.422081 0.000000
-0.579456 1.222505 0.000000
-0.771420 0.954490 0.000000
-0.900932 0.650940 0.000000
-0.975602 0.329323 0.000000
-0.163611 1.479787 0.000000
-0.457521 1.333798 0.000000
-0.683799 1.094506 0.000000
-0.843445 0.805823 0.000000
-0.944761 0.491642 0.000000
-0.993923 0.165116 0.000000
-0.975602 -0.329323 0.000000
-0.900932 -0.650940 0.000000
-0.771420 -0.954490 0.000000
-0.579456 -1.222505 0.000000
-0.318109 -1.422081 0.000000
-0.993923 -0.165116 0.000000
-0.944761 -0.491642 0.000000
-0.843445 -0.805823 0.000000
-0.683799 -1.094506 0.000000
-0.457521 -1.333798 0.000000
-0.163611 -1.479787 0.000000
0.000000 -1.316667 0.000000
0.000000 -1.133333 0.000000
0.000000 -0.950000 0.000000
0.000000 -0.766667 0.000000
0.000000 -0.583333 0.000000
0.000000 -1.408333 0.000000
0.000000 -1.225000 0.000000
0.000000 -1.041667 0.000000
0.000000 -0.858333 0.000000
0.000000 -0.675000 0.000000
0.000000 -0.491667 0.000000
0.900000 0.000000 0.000000
0.800000 0.000000 0.000000
0.700000 0.000000 0.000000
0.600000 0.000000 0.000000
0.500000 0.000000 0.000000
0.950000 0.000000 0.000000
0.850000 0.000000 0.000000
0.750000 0.000000 0.000000
0.650000 0.000000 0.000000
0.550000 0.000000 0.000000
0.450000 0.000000 0.000000
0.000000 1.316667 0.000000
0.000000 1.133333 0.000000
0.000000 0.950000 0.000000
0.000000 0.766667 0.000000
0.000000 0.583333 0.000000
0.000000 1.408333 0.000000
0.000000 1.225000 0.000000
0.000000 1.041667 0.000000
0.000000 0.858333 0.000000
0.000000 0.675000 0.000000
0.000000 0.491667 0.000000
-0.900000 0.000000 0.000000
-0.800000 0.000000 0.000000
-0.700000 0.000000 0.000000
-0.600000 0.000000 0.000000
-0.500000 0.000000 0.000000
-0.950000 0.000000 0.000000
-0.850000 0.000000 0.000000
-0.750000 0.000000 0.000000
-0.650000 0.000000 0.000000
-0.550000 0.000000 0.000000
-0.450000 0.000000 0.000000
0.395719 -0.864575 0.000000
0.259395 -0.559861 0.000000
0.669282 -0.470468 0.000000
0.468822 -0.302562 0.000000
0.470294 -1.024958 0.000000
0.204156 -1.007017 0.000000
0.247763 -1.189717 0.000000
0.323269 -0.707398 0.000000
0.131880 -0.665738 0.000000
0.165412 -0.833111 0.000000
0.195001 -0.411834 0.000000
0.098639 -0.498826 0.000000
0.795221 -0.564672 0.000000
0.555245 -0.685751 0.000000
0.645327 -0.806816 0.000000
0.568795 -0.386755 0.000000
0.380065 -0.445574 0.000000
0.456725 -0.556587 0.000000
0.363238 -0.216050 0.000000
0.285916 -0.319579 0.000000
0.741626 -0.237527 0.000000
0.860178 -0.284263 0.000000
0.534262 -0.151178 0.000000
0.635836 -0.193746 0.000000
0.433160 -0.108667 0.000000
0.282936 -1.305899 0.000000
0.123881 -1.253192 0.000000
0.524875 -1.123732 0.000000
0.359028 -1.107338 0.000000
0.433006 -0.944767 0.000000
0.299938 -0.935796 0.000000
0.225960 -1.098367 0.000000
0.102078 -1.070175 0.000000
0.184784 -0.920064 0.000000
0.082706 -0.891556 0.000000
0.359494 -0.785987 0.000000
0.244341 -0.770255 0.000000
0.291332 -0.633629 0.000000
0.195638 -0.612799 0.000000
0.148646 -0.749424 0.000000
0.065940 -0.716202 0.000000
0.115259 -0.582282 0.000000
0.049319 -0.541080 0.000000
0.227198 -0.485847 0.000000
0.146820 -0.455330 0.000000
0.164167 -0.339250 0.000000
0.082653 -0.416080 0.000000
0.708374 -0.880653 0.000000
0.557810 -0.915887 0.000000
0.848077 -0.607806 0.000000
0.720274 -0.685744 0.000000
0.732252 -0.517570 0.000000
0.612264 -0.578110 0.000000
0.600286 -0.746284 0.000000
0.475482 -0.775163 0.000000
0.505985 -0.621169 0.000000
0.389997 -0.631993 0.000000
0.619038 -0.428612 0.000000
0.512760 -0.471671 0.000000
0.518808 -0.344658 0.000000
0.424443 -0.374068 0.000000
0.418395 -0.501081 0.000000
0.319730 -0.502718 0.000000
0.332990 -0.382577 0.000000
0.240459 -0.365707 0.000000
0.416030 -0.259306 0.000000
0.324577 -0.267815 0.000000
0.314952 -0.174692 0.000000
0.242958 -0.259790 0.000000
0.917890 -0.306793 0.000000
0.827700 -0.424467 0.000000
0.880089 -0.142131 0.000000
0.770813 -0.118764 0.000000
0.800902 -0.260895 0.000000
0.705454 -0.353998 0.000000
0.688731 -0.215637 0.000000
0.602315 -0.290251 0.000000
0.667918 -0.096873 0.000000
0.567131 -0.075589 0.000000
0.585049 -0.172462 0.000000
0.501542 -0.226870 0.000000
0.483711 -0.129922 0.000000
0.398199 -0.162358 0.000000
0.466580 -0.054333 0.000000
0.383247 -0.087667 0.000000
0.689510 0.478404 0.000000
0.468822 0.302562 0.000000
0.396294 0.865300 0.000000
0.257800 0.558065 0.000000
0.795221 0.564672 0.000000
0.745015 0.238857 0.000000
0.860178 0.284263 0.000000
0.568839 0.386777 0.000000
0.534533 0.151292 0.000000
0.637973 0.194587 0.000000
0.363420 0.216203 0.000000
0.433226 0.108706 0.000000
0.468341 1.022695 0.000000
0.561146 0.691924 0.000000
0.647386 0.807913 0.000000
0.321648 0.705619 0.000000
0.370475 0.437175 0.000000
0.464928 0.564333 0.000000
0.194273 0.411098 0.000000
0.287201 0.320593 0.000000
0.201943 1.004577 0.000000
0.246678 1.188518 0.000000
0.130806 0.664551 0.000000
0.164251 0.831835 0.000000
0.098186 0.498329 0.000000
0.917890 0.306793 0.000000
0.880089 0.142131 0.000000
0.848077 0.607806 0.000000
0.827700 0.424467 0.000000
0.742366 0.521538 0.000000
0.717263 0.358630 0.000000
0.802597 0.261560 0.000000
0.772507 0.119428 0.000000
0.691494 0.216722 0.000000
0.668987 0.097293 0.000000
0.629175 0.432591 0.000000
0.603406 0.290682 0.000000
0.518830 0.344669 0.000000
0.501677 0.226927 0.000000
0.586253 0.172940 0.000000
0.567266 0.075646 0.000000
0.483880 0.129999 0.000000
0.466613 0.054353 0.000000
0.416121 0.259382 0.000000
0.398323 0.162455 0.000000
0.315043 0.174768 0.000000
0.383280 0.087686 0.000000
0.709403 0.881201 0.000000
0.721304 0.686292 0.000000
0.523898 1.122600 0.000000
0.557863 0.915304 0.000000
0.432317 0.943998 0.000000
0.478720 0.778612 0.000000
0.604266 0.749918 0.000000
0.625328 0.585164 0.000000
0.513037 0.628128 0.000000
0.516883 0.475555 0.000000
0.358971 0.785459 0.000000
0.393288 0.634976 0.000000
0.289724 0.631842 0.000000
0.314137 0.497620 0.000000
0.417701 0.500754 0.000000
0.419648 0.369868 0.000000
0.328838 0.378884 0.000000
0.325310 0.268398 0.000000
0.226036 0.484581 0.000000
0.240737 0.365845 0.000000
0.163803 0.338882 0.000000
0.243601 0.260297 0.000000
0.282394 1.305299 0.000000
0.357509 1.105607 0.000000
0.123339 1.252592 0.000000
0.100971 1.068955 0.000000
0.224311 1.096547 0.000000
0.299119 0.934939 0.000000
0.183097 0.918206 0.000000
0.242949 0.768727 0.000000
0.082126 0.890918 0.000000
0.065403 0.715609 0.000000
0.147529 0.748193 0.000000
0.194303 0.611308 0.000000
0.114496 0.581440 0.000000
0.146229 0.454713 0.000000
0.049093 0.540831 0.000000
0.082426 0.415831 0.000000
-0.390034 0.858069 0.000000
-0.258592 0.558961 0.000000
-0.689510 0.478404 0.000000
-0.468822 0.302562 0.000000
-0.467554 1.021673 0.000000
-0.203612 1.006383 0.000000
-0.246562 1.188338 0.000000
-0.321255 0.705049 0.000000
-0.131464 0.665265 0.000000
-0.164446 0.832004 0.000000
-0.194863 0.411679 0.000000
-0.098507 0.498678 0.000000
-0.795221 0.564672 0.000000
-0.560996 0.691029 0.000000
-0.646871 0.807178 0.000000
-0.568795 0.386755 0.000000
-0.380065 0.445574 0.000000
-0.458051 0.556986 0.000000
-0.363238 0.216050 0.000000
-0.285916 0.319579 0.000000
-0.745060 0.238879 0.000000
-0.860178 0.284263 0.000000
-0.534459 0.151255 0.000000
-0.637949 0.194576 0.000000
-0.433185 0.108677 0.000000
-0.282336 1.305210 0.000000
-0.123281 1.252502 0.000000
-0.523505 1.122089 0.000000
-0.357058 1.105006 0.000000
-0.428794 0.939871 0.000000
-0.296823 0.932226 0.000000
-0.225087 1.097361 0.000000
-0.101806 1.069858 0.000000
-0.184029 0.919194 0.000000
-0.082223 0.891002 0.000000
-0.355644 0.781559 0.000000
-0.242850 0.768527 0.000000
-0.289923 0.632005 0.000000
-0.195028 0.612113 0.000000
-0.147955 0.748634 0.000000
-0.065732 0.715966 0.000000
-0.114986 0.581972 0.000000
-0.049254 0.541006 0.000000
-0.226728 0.485320 0.000000
-0.146685 0.455179 0.000000
-0.164098 0.339173 0.000000
-0.082587 0.416006 0.000000
-0.709146 0.880834 0.000000
[...]
POINT_DATA 565
VECTORS sol double
-0.000002 +0.000001 0
-0.656949 +0.320231 0
-0.000000 +0.000000 0
+0.656949 -0.320231 0
+0.000000 +0.000000 0
+0.000000 +0.000000 0
+0.000000 +0.000000 0
+0.000000 +0.000000 0
-0.106107 +0.051722 0
-0.223618 +0.109003 0
-0.345155 +0.168246 0
-0.462932 +0.225657 0
-0.569220 +0.277468 0
-0.051177 +0.024946 0
-0.163852 +0.079870 0
-0.284321 +0.138593 0
-0.404969 +0.197403 0
-0.517923 +0.252463 0
-0.615767 +0.300157 0
-0.569220 +0.277468 0
-0.462932 +0.225657 0
-0.345150 +0.168244 0
-0.223612 +0.109000 0
-0.106106 +0.051722 0
-0.615767 +0.300157 0
-0.517921 +0.252462 0
-0.404966 +0.197402 0
-0.284326 +0.138595 0
-0.163851 +0.079869 0
-0.051175 +0.024945 0
+0.106105 -0.051721 0
+0.223616 -0.109002 0
+0.345153 -0.168246 0
+0.462931 -0.225656 0
+0.569220 -0.277467 0
+0.051175 -0.024945 0
+0.163851 -0.079869 0
+0.284320 -0.138592 0
+0.404967 -0.197402 0
+0.517922 -0.252462 0
+0.615767 -0.300157 0
+0.569220 -0.277467 0
+0.462931 -0.225657 0
+0.345149 -0.168243 0
+0.223610 -0.108999 0
+0.106104 -0.051721 0
+0.615767 -0.300157 0
+0.517921 -0.252461 0
+0.404965 -0.197401 0
+0.284324 -0.138594 0
+0.163849 -0.079868 0
+0.051173 -0.024944 0
+0.000000 +0.000000 0
+0.000000 +0.000000 0
+0.000000 +0.000000 0
+0.000000 +0.000000 0
+0.000000 +0.000000 0
+0.000000 +0.000000 0
+0.000000 +0.000000 0
+0.000000 +0.000000 0
+0.000000 +0.000000 0
+0.000000 +0.000000 0
+0.000000 +0.000000 0
+0.000000 +0.000000 0
+0.000000 +0.000000 0
+0.000000 +0.000000 0
+0.000000 +0.000000 0
+0.000000 +0.000000 0
+0.000000 +0.000000 0
+0.000000 +0.000000 0
+0.000000 +0.000000 0
+0.000000 +0.000000 0
+0.000000 +0.000000 0
+0.000000 +0.000000 0
+0.000000 +0.000000 0
+0.000000 +0.000000 0
+0.000000 +0.000000 0
+0.000000 +0.000000 0
+0.000000 +0.000000 0
+0.000000 +0.000000 0
+0.000000 +0.000000 0
+0.000000 +0.000000 0
+0.000000 +0.000000 0
+0.000000 +0.000000 0
+0.000000 +0.000000 0
+0.000000 +0.000000 0
+0.000000 +0.000000 0
+0.000000 +0.000000 0
+0.000000 +0.000000 0
+0.000000 +0.000000 0
+0.000000 +0.000000 0
+0.000000 +0.000000 0
+0.000000 +0.000000 0
+0.000000 +0.000000 0
+0.000000 +0.000000 0
+0.000000 +0.000000 0
+0.240578 -0.117270 0
+0.492289 -0.239967 0
+0.700552 -0.341485 0
+0.815250 -0.397395 0
+0.803440 -0.391639 0
+0.114999 -0.056057 0
+0.368679 -0.179713 0
+0.605512 -0.295158 0
+0.772290 -0.376454 0
+0.826277 -0.402770 0
+0.746187 -0.363730 0
-0.000001 +0.000001 0
+0.000002 -0.000001 0
+0.000004 -0.000002 0
-0.000006 +0.000003 0
-0.000001 +0.000001 0
-0.000000 +0.000000 0
-0.000005 +0.000002 0
-0.000006 +0.000003 0
+0.000009 -0.000004 0
-0.000003 +0.000001 0
-0.000002 +0.000001 0
-0.240573 +0.117268 0
-0.492287 +0.239966 0
-0.700553 +0.341486 0
-0.815248 +0.397394 0
-0.803440 +0.391638 0
-0.114995 +0.056055 0
-0.368679 +0.179713 0
-0.605508 +0.295156 0
-0.772291 +0.376455 0
-0.826277 +0.402770 0
-0.746187 +0.363730 0
-0.000000 +0.000000 0
-0.000000 +0.000000 0
+0.000000 -0.000000 0
+0.000001 -0.000000 0
-0.000001 +0.000000 0
-0.000000 +0.000000 0
-0.000000 +0.000000 0
+0.000000 -0.000000 0
-0.000001 +0.000001 0
+0.000000 -0.000000 0
-0.000000 +0.000000 0
+0.538514 -0.262500 0
+0.704227 -0.343277 0
+0.287318 -0.140054 0
+0.363591 -0.177233 0
+0.321023 -0.156483 0
+0.580913 -0.283167 0
+0.335664 -0.163620 0
+0.675469 -0.329259 0
+0.800129 -0.390024 0
+0.744604 -0.362959 0
+0.629811 -0.307003 0
+0.739968 -0.360699 0
+0.147101 -0.071705 0
+0.425519 -0.207420 0
+0.261705 -0.127568 0
+0.352338 -0.171748 0
+0.549496 -0.267853 0
+0.535215 -0.260892 0
+0.318503 -0.155255 0
+0.485427 -0.236622 0
+0.139276 -0.067891 0
+0.078098 -0.038069 0
+0.172674 -0.084170 0
+0.169345 -0.082547 0
+0.150631 -0.073425 0
+0.162480 -0.079201 0
+0.309523 -0.150878 0
+0.159376 -0.077688 0
+0.349494 -0.170362 0
+0.436926 -0.212981 0
+0.578221 -0.281855 0
+0.464190 -0.226270 0
+0.556378 -0.271208 0
+0.674028 -0.328556 0
+0.738600 -0.360032 0
+0.618834 -0.301652 0
+0.724054 -0.352941 0
+0.702405 -0.342389 0
+0.761217 -0.371057 0
+0.786160 -0.383215 0
+0.818883 -0.399166 0
+0.784675 -0.382491 0
+0.778001 -0.379238 0
+0.679837 -0.331388 0
+0.689637 -0.336165 0
+0.556710 -0.271369 0
+0.667296 -0.325275 0
+0.133114 -0.064887 0
+0.308154 -0.150210 0
+0.075958 -0.037026 0
+0.213038 -0.103846 0
+0.223341 -0.108868 0
+0.365334 -0.178083 0
+0.349734 -0.170479 0
+0.495695 -0.241628 0
+0.490884 -0.239283 0
+0.615282 -0.299920 0
+0.326014 -0.158916 0
+0.448578 -0.218660 0
+0.364890 -0.177866 0
+0.459625 -0.224045 0
+0.550917 -0.268546 0
+0.632514 -0.308320 0
+0.528876 -0.257802 0
+0.560395 -0.273166 0
+0.348255 -0.169758 0
+0.402795 -0.196343 0
+0.276397 -0.134730 0
+0.423608 -0.206489 0
+0.040826 -0.019901 0
+0.119885 -0.058438 0
+0.038143 -0.018593 0
+0.065283 -0.031822 0
+0.111629 -0.054414 0
+0.217236 -0.105892 0
+0.157420 -0.076735 0
+0.262792 -0.128099 0
+0.079627 -0.038814 0
+0.081855 -0.039900 0
+0.174113 -0.084872 0
+0.268043 -0.130658 0
+0.164641 -0.080255 0
+0.233259 -0.113703 0
+0.071987 -0.035090 0
+0.130948 -0.063831 0
-0.267062 +0.130180 0
-0.363585 +0.177230 0
-0.537421 +0.261967 0
-0.704454 +0.343388 0
-0.147139 +0.071723 0
-0.137907 +0.067223 0
-0.078099 +0.038069 0
-0.352394 +0.171775 0
-0.172698 +0.084182 0
-0.168956 +0.082358 0
-0.318628 +0.155316 0
-0.150676 +0.073447 0
-0.325455 +0.158644 0
-0.416819 +0.203179 0
-0.258325 +0.125921 0
-0.677181 +0.330093 0
-0.550623 +0.268402 0
-0.528682 +0.257707 0
-0.629361 +0.306783 0
-0.486042 +0.236922 0
-0.584790 +0.285057 0
-0.337899 +0.164709 0
-0.800438 +0.390175 0
-0.745892 +0.363587 0
-0.739698 +0.360567 0
-0.040829 +0.019902 0
-0.038149 +0.018596 0
-0.075971 +0.037032 0
-0.119866 +0.058429 0
-0.211859 +0.103271 0
-0.208768 +0.101765 0
-0.110792 +0.054006 0
-0.065111 +0.031738 0
-0.156541 +0.076306 0
-0.079695 +0.038847 0
-0.317562 +0.154796 0
-0.262331 +0.127874 0
-0.364861 +0.177852 0
-0.268044 +0.130659 0
-0.174058 +0.084845 0
-0.081892 +0.039918 0
-0.164685 +0.080276 0
-0.072012 +0.035103 0
-0.348328 +0.169793 0
-0.233350 +0.113747 0
-0.276482 +0.134771 0
-0.130975 +0.063844 0
-0.131377 +0.064040 0
-0.211516 +0.103104 0
-0.161644 +0.078794 0
-0.308529 +0.150393 0
-0.438348 +0.213674 0
-0.490349 +0.239022 0
-0.343066 +0.167228 0
-0.349818 +0.170519 0
-0.482826 +0.235354 0
-0.446259 +0.217530 0
-0.619560 +0.302006 0
-0.612265 +0.298450 0
-0.703426 +0.342886 0
-0.633477 +0.308790 0
-0.551350 +0.268756 0
-0.459414 +0.223942 0
-0.527816 +0.257285 0
-0.403240 +0.196560 0
-0.679500 +0.331224 0
-0.560428 +0.273181 0
-0.556349 +0.271193 0
-0.424110 +0.206733 0
-0.163581 +0.079738 0
-0.352879 +0.172011 0
-0.310510 +0.151359 0
-0.558164 +0.272078 0
-0.467420 +0.227845 0
-0.579664 +0.282558 0
-0.676505 +0.329764 0
-0.725562 +0.353676 0
-0.739228 +0.360338 0
-0.819053 +0.399249 0
-0.786958 +0.383604 0
-0.761518 +0.371204 0
-0.784554 +0.382432 0
-0.689278 +0.335990 0
-0.777880 +0.379179 0
-0.667070 +0.325165 0
-0.548853 +0.267539 0
-0.704350 +0.343337 0
-0.267069 +0.130183 0
-0.363589 +0.177232 0
-0.327341 +0.159563 0
-0.581894 +0.283645 0
-0.338209 +0.164861 0
-0.677581 +0.330288 0
-0.800249 +0.390083 0
-0.745695 +0.363491 0
-0.629707 +0.306952 0
-0.739887 +0.360659 0
-0.147137 +0.071722 0
-0.417194 +0.203362 0
-0.259404 +0.126447 0
-0.352393 +0.171775 0
-0.549498 +0.267854 0
-0.533955 +0.260277 0
-0.318506 +0.155256 0
-0.485429 +0.236623 0
-0.137888 +0.067214 0
-0.078096 +0.038068 0
-0.172687 +0.084177 0
-0.168963 +0.082361 0
-0.150641 +0.073430 0
-0.163734 +0.079812 0
-0.310656 +0.151430 0
-0.162610 +0.079264 0
-0.353969 +0.172543 0
-0.445766 +0.217290 0
-0.583937 +0.284641 0
-0.465950 +0.227128 0
-0.556833 +0.271429 0
-0.675176 +0.329116 0
-0.739134 +0.360292 0
-0.624482 +0.304405 0
-0.725716 +0.353752 0
-0.703261 +0.342806 0
-0.761353 +0.371123 0
-0.786664 +0.383461 0
-0.818951 +0.399199 0
-0.784628 +0.382468 0
-0.777965 +0.379220 0
-0.679695 +0.331318 0
-0.689545 +0.336120 0
-0.556631 +0.271331 0
-0.667228 +0.325242 0
-0.131961 +0.064325 0
-0.310035 +0.151127 0
-0.075970 +0.037032 0
-0.211967 +0.103324 0
-0.211860 +0.103271 0
-0.349911 +0.170565 0
-0.343814 +0.167593 0
-0.495908 +0.241731 0
-0.486884 +0.237333 0
-0.615523 +0.300038 0
-0.317556 +0.154793 0
-0.448026 +0.218391 0
-0.364917 +0.177879 0
-0.459631 +0.224048 0
-0.550420 +0.268303 0
-0.632536 +0.308331 0
-0.528878 +0.257802 0
-0.560339 +0.273138 0
-0.348257 +0.169759 0
-0.402797 +0.196344 0
-0.276400 +0.134732 0
-0.423610 +0.206489 0
-0.040827 +0.019901 0
-0.119865 +0.058429 0
-0.038149 +0.018596 0
-0.065110 +0.031738 0
-0.110781 +0.054000 0
-0.208748 +0.101755 0
-0.156543 +0.076307 0
-0.262344 +0.127880 0
-0.079695 +0.038848 0
-0.081877 +0.039911 0
-0.174047 +0.084840 0
-0.268039 +0.130656 0
-0.164664 +0.080266 0
-0.233264 +0.113705 0
-0.071993 +0.035093 0
-0.130955 +0.063834 0
+0.267062 -0.130180 0
+0.363583 -0.177229 0
+0.537421 -0.261967 0
+0.704454 -0.343388 0
+0.147139 -0.071723 0
+0.137905 -0.067222 0
+0.078098 -0.038069 0
+0.352394 -0.171775 0
+0.172698 -0.084182 0
+0.168955 -0.082357 0
+0.318626 -0.155315 0
+0.150675 -0.073447 0
+0.325456 -0.158644 0
+0.416819 -0.203179 0
+0.258325 -0.125921 0
+0.677181 -0.330093 0
+0.550623 -0.268402 0
+0.528682 -0.257707 0
+0.629361 -0.306783 0
+0.486041 -0.236922 0
+0.584791 -0.285058 0
+0.337899 -0.164710 0
+0.800438 -0.390175 0
+0.745893 -0.363587 0
+0.739698 -0.360567 0
+0.040828 -0.019902 0
+0.038149 -0.018596 0
+0.075971 -0.037032 0
+0.119865 -0.058429 0
+0.211858 -0.103271 0
+0.208768 -0.101764 0
+0.110792 -0.054006 0
+0.065111 -0.031739 0
+0.156542 -0.076307 0
+0.079696 -0.038848 0
+0.317562 -0.154796 0
+0.262331 -0.127874 0
+0.364861 -0.177852 0
+0.268043 -0.130658 0
+0.174055 -0.084844 0
+0.081890 -0.039917 0
+0.164683 -0.080275 0
+0.072010 -0.035102 0
+0.348327 -0.169793 0
+0.233349 -0.113746 0
+0.276480 -0.134771 0
+0.130973 -0.063843 0
+0.131377 -0.064040 0
+0.211516 -0.103104 0
+0.161644 -0.078794 0
+0.308529 -0.150393 0
+0.438348 -0.213674 0
+0.490349 -0.239022 0
+0.343066 -0.167228 0
+0.349818 -0.170519 0
+0.482825 -0.235354 0
+0.446258 -0.217529 0
+0.619560 -0.302006 0
+0.612265 -0.298450 0
+0.703426 -0.342886 0
+0.633477 -0.308789 0
+0.551349 -0.268756 0
+0.459413 -0.223942 0
+0.527815 -0.257285 0
+0.403239 -0.196560 0
+0.679500 -0.331223 0
+0.560427 -0.273181 0
+0.556348 -0.271193 0
+0.424109 -0.206733 0
+0.163582 -0.079738 0
+0.352879 -0.172012 0
+0.310512 -0.151360 0
+0.558166 -0.272079 0
+0.467422 -0.227846 0
+0.579664 -0.282558 0
+0.676505 -0.329764 0
+0.725562 -0.353677 0
+0.739228 -0.360338 0
+0.819054 -0.399249 0
+0.786958 -0.383604 0
+0.761518 -0.371204 0
+0.784554 -0.382432 0
+0.689277 -0.335990 0
+0.777881 -0.379179 0
+0.667070 -0.325165 0
+0.249970 -0.121848 0
-0.000000 +0.000000 0
-0.000001 +0.000001 0
-0.249972 +0.121849 0
+0.364871 -0.177857 0
+0.364872 -0.177858 0
+0.475964 -0.232010 0
+0.125661 -0.061253 0
+0.118932 -0.057974 0
+0.243216 -0.118556 0
-0.118934 +0.057974 0
-0.000000 +0.000000 0
+0.118932 -0.057974 0
+0.125660 -0.061253 0
+0.243216 -0.118556 0
-0.125662 +0.061254 0
-0.125662 +0.061254 0
-0.000001 +0.000000 0
-0.364872 +0.177858 0
-0.243218 +0.118557 0
-0.118934 +0.057974 0
-0.000001 +0.000001 0
-0.364873 +0.177858 0
-0.243218 +0.118557 0
-0.475965 +0.232010 0
+0.525268 -0.256043 0
+0.525268 -0.256043 0
+0.416444 -0.202996 0
+0.422230 -0.205817 0
+0.309082 -0.150662 0
+0.309082 -0.150663 0
+0.422230 -0.205817 0
+0.416444 -0.202997 0
+0.304886 -0.148617 0
+0.296582 -0.144569 0
+0.188493 -0.091881 0
+0.185943 -0.090638 0
+0.062487 -0.030460 0
+0.060798 -0.029636 0
+0.180910 -0.088185 0
+0.173499 -0.084573 0
+0.058319 -0.028428 0
+0.055091 -0.026854 0
-0.060800 +0.029637 0
-0.058320 +0.028428 0
-0.173499 +0.084572 0
-0.055092 +0.026855 0
+0.296580 -0.144568 0
+0.304886 -0.148617 0
+0.173497 -0.084571 0
+0.180908 -0.088184 0
+0.060798 -0.029636 0
+0.062487 -0.030459 0
+0.185942 -0.090638 0
+0.188493 -0.091881 0
+0.063342 -0.030876 0
+0.063343 -0.030876 0
-0.062489 +0.030460 0
-0.063344 +0.030877 0
-0.188495 +0.091882 0
-0.188495 +0.091882 0
-0.063344 +0.030877 0
-0.062489 +0.030460 0
-0.185944 +0.090639 0
-0.180910 +0.088185 0
-0.309083 +0.150663 0
-0.304887 +0.148618 0
-0.416445 +0.202997 0
-0.296581 +0.144569 0
+0.055090 -0.026854 0
+0.058318 -0.028427 0
-0.055093 +0.026855 0
-0.173501 +0.084573 0
-0.058321 +0.028429 0
-0.060800 +0.029637 0
-0.180912 +0.088186 0
-0.185944 +0.090639 0
-0.296583 +0.144570 0
-0.416445 +0.202997 0
-0.304888 +0.148618 0
-0.309083 +0.150663 0
-0.422231 +0.205817 0
-0.422231 +0.205817 0
-0.525269 +0.256043 0
-0.525269 +0.256043 0
