# vtk DataFile Version 2.0
MyTitle
ASCII
DATASET UNSTRUCTURED_GRID
POINTS 565 double
0.400000 0.000000 0.000000
0.000000 0.400000 0.000000
-0.400000 0.000000 0.000000
0.000000 -0.400000 0.000000
0.000000 -1.500000 0.000000
1.000000 0.000000 0.000000
0.000000 1.500000 0.000000
-1.000000 0.000000 0.000000
0.333333 0.066667 0.000000
0.266667 0.133333 0.000000
0.200000 0.200000 0.000000
0.133333 0.266667 0.000000
0.066667 0.333333 0.000000
0.366667 0.033333 0.000000
0.300000 0.100000 0.000000
0.233333 0.166667 0.000000
0.166667 0.233333 0.000000
0.100000 0.300000 0.000000
0.033333 0.366667 0.000000
-0.066667 0.333333 0.000000
-0.133333 0.266667 0.000000
-0.200000 0.200000 0.000000
-0.266667 0.133333 0.000000
-0.333333 0.066667 0.000000
-0.033333 0.366667 0.000000
-0.100000 0.300000 0.000000
-0.166667 0.233333 0.000000
-0.233333 0.166667 0.000000
-0.300000 0.100000 0.000000
-0.366667 0.033333 0.000000
-0.333333 -0.066667 0.000000
-0.266667 -0.133333 0.000000
-0.200000 -0.200000 0.000000
-0.133333 -0.266667 0.000000
-0.066667 -0.333333 0.000000
-0.366667 -0.033333 0.000000
-0.300000 -0.100000 0.000000
-0.233333 -0.166667 0.000000
-0.166667 -0.233333 0.000000
-0.100000 -0.300000 0.000000
-0.033333 -0.366667 0.000000
0.066667 -0.333333 0.000000
0.133333 -0.266667 0.000000
0.200000 -0.200000 0.000000
0.266667 -0.133333 0.000000
0.333333 -0.066667 0.000000
0.033333 -0.366667 0.000000
0.100000 -0.300000 0.000000
0.166667 -0.233333 0.000000
0.233333 -0.166667 0.000000
0.300000 -0.100000 0.000000
0.366667 -0.033333 0.000000
0.318109 -1.422081 0.000000
0.579456 -1.222505 0.000000
0.771420 -0.954490 0.000000
0.900932 -0.650940 0.000000
0.975602 -0.329323 0.000000
0.163611 -1.479787 0.000000
0.457521 -1.333798 0.000000
0.683799 -1.094506 0.000000
0.843445 -0.805823 0.000000
0.944761 -0.491642 0.000000
0.993923 -0.165116 0.000000
0.975602 0.329323 0.000000
0.900932 0.650940 0.000000
0.771420 0.954490 0.000000
0.579456 1.222505 0.000000
0.318109 1.422081 0.000000
0.993923 0.165116 0.000000
0.944761 0.491642 0.000000
0.843445 0.805823 0.000000
0.683799 1.094506 0.000000
0.457521 1.333798 0.000000
0.163611 1.479787 0.000000
-0.318109 1.422081 0.000000
-0.579456 1.222505 0.000000
-0.771420 0.954490 0.000000
-0.900932 0.650940 0.000000
-0.975602 0.329323 0.000000
-0.163611 1.479787 0.000000
-0.457521 1.333798 0.000000
-0.683799 1.094506 0.000000
-0.843445 0.805823 0.000000
-0.944761 0.491642 0.000000
-0.993923 0.165116 0.000000
-0.975602 -0.329323 0.000000
-0.900932 -0.650940 0.000000
-0.771420 -0.954490 0.000000
-0.579456 -1.222505 0.000000
-0.318109 -1.422081 0.000000
-0.993923 -0.165116 0.000000
-0.944761 -0.491642 0.000000
-0.843445 -0.805823 0.000000
-0.683799 -1.094506 0.000000
-0.457521 -1.333798 0.000000
-0.163611 -1.479787 0.000000
0.000000 -1.316667 0.000000
0.000000 -1.133333 0.000000
0.000000 -0.950000 0.000000
0.000000 -0.766667 0.000000
0.000000 -0.583333 0.000000
0.000000 -1.408333 0.000000
0.000000 -1.225000 0.000000
0.000000 -1.041667 0.000000
0.000000 -0.858333 0.000000
0.000000 -0.675000 0.000000
0.000000 -0.491667 0.000000
0.900000 0.000000 0.000000
0.800000 0.000000 0.000000
0.700000 0.000000 0.000000
0.600000 0.000000 0.000000
0.500000 0.000000 0.000000
0.950000 0.000000 0.000000
0.850000 0.000000 0.000000
0.750000 0.000000 0.000000
0.650000 0.000000 0.000000
0.550000 0.000000 0.000000
0.450000 0.000000 0.000000
0.000000 1.316667 0.000000
0.000000 1.133333 0.000000
0.000000 0.950000 0.000000
0.000000 0.766667 0.000000
0.000000 0.583333 0.000000
0.000000 1.408333 0.000000
0.000000 1.225000 0.000000
0.000000 1.041667 0.000000
0.000000 0.858333 0.000000
0.000000 0.675000 0.000000
0.000000 0.491667 0.000000
-0.900000 0.000000 0.000000
-0.800000 0.000000 0.000000
-0.700000 0.000000 0.000000
-0.600000 0.000000 0.000000
-0.500000 0.000000 0.000000
-0.950000 0.000000 0.000000
-0.850000 0.000000 0.000000
-0.750000 0.000000 0.000000
-0.650000 0.000000 0.000000
-0.550000 0.000000 0.000000
-0.450000 0.000000 0.000000
0.395719 -0.864575 0.000000
0.259395 -0.559861 0.000000
0.669282 -0.470468 0.000000
0.468822 -0.302562 0.000000
0.470294 -1.024958 0.000000
0.204156 -1.007017 0.000000
0.247763 -1.189717 0.000000
0.323269 -0.707398 0.000000
0.131880 -0.665738 0.000000
0.165412 -0.833111 0.000000
0.195001 -0.411834 0.000000
0.098639 -0.498826 0.000000
0.795221 -0.564672 0.000000
0.555245 -0.685751 0.000000
0.645327 -0.806816 0.000000
0.568795 -0.386755 0.000000
0.380065 -0.445574 0.000000
0.456725 -0.556587 0.000000
0.363238 -0.216050 0.000000
0.285916 -0.319579 0.000000
0.741626 -0.237527 0.000000
0.860178 -0.284263 0.000000
0.534262 -0.151178 0.000000
0.635836 -0.193746 0.000000
0.433160 -0.108667 0.000000
0.282936 -1.305899 0.000000
0.123881 -1.253192 0.000000
0.524875 -1.123732 0.000000
0.359028 -1.107338 0.000000
0.433006 -0.944767 0.000000
0.299938 -0.935796 0.000000
0.225960 -1.098367 0.000000
0.102078 -1.070175 0.000000
0.184784 -0.920064 0.000000
0.082706 -0.891556 0.000000
0.359494 -0.785987 0.000000
0.244341 -0.770255 0.000000
0.291332 -0.633629 0.000000
0.195638 -0.612799 0.000000
0.148646 -0.749424 0.000000
0.065940 -0.716202 0.000000
0.115259 -0.582282 0.000000
0.049319 -0.541080 0.000000
0.227198 -0.485847 0.000000
0.146820 -0.455330 0.000000
0.164167 -0.339250 0.000000
0.082653 -0.416080 0.000000
0.708374 -0.880653 0.000000
0.557810 -0.915887 0.000000
0.848077 -0.607806 0.000000
0.720274 -0.685744 0.000000
0.732252 -0.517570 0.000000
0.612264 -0.578110 0.000000
0.600286 -0.746284 0.000000
0.475482 -0.775163 0.000000
0.505985 -0.621169 0.000000
0.389997 -0.631993 0.000000
0.619038 -0.428612 0.000000
0.512760 -0.471671 0.000000
0.518808 -0.344658 0.000000
0.424443 -0.374068 0.000000
0.418395 -0.501081 0.000000
0.319730 -0.502718 0.000000
0.332990 -0.382577 0.000000
0.240459 -0.365707 0.000000
0.416030 -0.259306 0.000000
0.324577 -0.267815 0.000000
0.314952 -0.174692 0.000000
0.242958 -0.259790 0.000000
0.917890 -0.306793 0.000000
0.827700 -0.424467 0.000000
0.880089 -0.142131 0.000000
0.770813 -0.118764 0.000000
0.800902 -0.260895 0.000000
0.705454 -0.353998 0.000000
0.688731 -0.215637 0.000000
0.602315 -0.290251 0.000000
0.667918 -0.096873 0.000000
0.567131 -0.075589 0.000000
0.585049 -0.172462 0.000000
0.501542 -0.226870 0.000000
0.483711 -0.129922 0.000000
0.398199 -0.162358 0.000000
0.466580 -0.054333 0.000000
0.383247 -0.087667 0.000000
0.689510 0.478404 0.000000
0.468822 0.302562 0.000000
0.396294 0.865300 0.000000
0.257800 0.558065 0.000000
0.795221 0.564672 0.000000
0.745015 0.238857 0.000000
0.860178 0.284263 0.000000
0.568839 0.386777 0.000000
0.534533 0.151292 0.000000
0.637973 0.194587 0.000000
0.363420 0.216203 0.000000
0.433226 0.108706 0.000000
0.468341 1.022695 0.000000
0.561146 0.691924 0.000000
0.647386 0.807913 0.000000
0.321648 0.705619 0.000000
0.370475 0.437175 0.000000
0.464928 0.564333 0.000000
0.194273 0.411098 0.000000
0.287201 0.320593 0.000000
0.201943 1.004577 0.000000
0.246678 1.188518 0.000000
0.130806 0.664551 0.000000
0.164251 0.831835 0.000000
0.098186 0.498329 0.000000
0.917890 0.306793 0.000000
0.880089 0.142131 0.000000
0.848077 0.607806 0.000000
0.827700 0.424467 0.000000
0.742366 0.521538 0.000000
0.717263 0.358630 0.000000
0.802597 0.261560 0.000000
0.772507 0.119428 0.000000
0.691494 0.216722 0.000000
0.668987 0.097293 0.000000
0.629175 0.432591 0.000000
0.603406 0.290682 0.000000
0.518830 0.344669 0.000000
0.501677 0.226927 0.000000
0.586253 0.172940 0.000000
0.567266 0.075646 0.000000
0.483880 0.129999 0.000000
0.466613 0.054353 0.000000
0.416121 0.259382 0.000000
0.398323 0.162455 0.000000
0.315043 0.174768 0.000000
0.383280 0.087686 0.000000
0.709403 0.881201 0.000000
0.721304 0.686292 0.000000
0.523898 1.122600 0.000000
0.557863 0.915304 0.000000
0.432317 0.943998 0.000000
0.478720 0.778612 0.000000
0.604266 0.749918 0.000000
0.625328 0.585164 0.000000
0.513037 0.628128 0.000000
0.516883 0.475555 0.000000
0.358971 0.785459 0.000000
0.393288 0.634976 0.000000
0.289724 0.631842 0.000000
0.314137 0.497620 0.000000
0.417701 0.500754 0.000000
0.419648 0.369868 0.000000
0.328838 0.378884 0.000000
0.325310 0.268398 0.000000
0.226036 0.484581 0.000000
0.240737 0.365845 0.000000
0.163803 0.338882 0.000000
0.243601 0.260297 0.000000
0.282394 1.305299 0.000000
0.357509 1.105607 0.000000
0.123339 1.252592 0.000000
0.100971 1.068955 0.000000
0.224311 1.096547 0.000000
0.299119 0.934939 0.000000
0.183097 0.918206 0.000000
0.242949 0.768727 0.000000
0.082126 0.890918 0.000000
0.065403 0.715609 0.000000
0.147529 0.748193 0.000000
0.194303 0.611308 0.000000
0.114496 0.581440 0.000000
0.146229 0.454713 0.000000
0.049093 0.540831 0.000000
0.082426 0.415831 0.000000
-0.390034 0.858069 0.000000
-0.258592 0.558961 0.000000
-0.689510 0.478404 0.000000
-0.468822 0.302562 0.000000
-0.467554 1.021673 0.000000
-0.203612 1.006383 0.000000
-0.246562 1.188338 0.000000
-0.321255 0.705049 0.000000
-0.131464 0.665265 0.000000
-0.164446 0.832004 0.000000
-0.194863 0.411679 0.000000
-0.098507 0.498678 0.000000
-0.795221 0.564672 0.000000
-0.560996 0.691029 0.000000
-0.646871 0.807178 0.000000
-0.568795 0.386755 0.000000
-0.380065 0.445574 0.000000
-0.458051 0.556986 0.000000
-0.363238 0.216050 0.000000
-0.285916 0.319579 0.000000
-0.745060 0.238879 0.000000
-0.860178 0.284263 0.000000
-0.534459 0.151255 0.000000
-0.637949 0.194576 0.000000
-0.433185 0.108677 0.000000
-0.282336 1.305210 0.000000
-0.123281 1.252502 0.000000
-0.523505 1.122089 0.000000
-0.357058 1.105006 0.000000
-0.428794 0.939871 0.000000
-0.296823 0.932226 0.000000
-0.225087 1.097361 0.000000
-0.101806 1.069858 0.000000
-0.184029 0.919194 0.000000
-0.082223 0.891002 0.000000
-0.355644 0.781559 0.000000
-0.242850 0.768527 0.000000
-0.289923 0.632005 0.000000
-0.195028 0.612113 0.000000
-0.147955 0.748634 0.000000
-0.065732 0.715966 0.000000
-0.114986 0.581972 0.000000
-0.049254 0.541006 0.000000
-0.226728 0.485320 0.000000
-0.146685 0.455179 0.000000
-0.164098 0.339173 0.000000
-0.082587 0.416006 0.000000
-0.709146 0.880834 0.000000
[...]
POINT_DATA 565
VECTORS sol double
-0.079652 -0.290568 0
+0.208682 +0.761265 0
-0.079625 -0.290469 0
+0.208677 +0.761247 0
+0.000000 +0.000000 0
+0.000000 +0.000000 0
+0.000000 +0.000000 0
+0.000000 +0.000000 0
+0.008240 +0.030061 0
+0.092483 +0.337374 0
+0.161332 +0.588535 0
+0.205884 +0.751058 0
+0.221625 +0.808483 0
-0.036073 -0.131592 0
+0.051614 +0.188288 0
+0.129498 +0.472403 0
+0.187086 +0.682485 0
+0.217484 +0.793374 0
+0.218535 +0.797211 0
+0.221627 +0.808488 0
+0.205898 +0.751111 0
+0.161337 +0.588552 0
+0.092493 +0.337413 0
+0.008265 +0.030149 0
+0.218535 +0.797209 0
+0.217484 +0.793374 0
+0.187086 +0.682485 0
+0.129517 +0.472475 0
+0.051633 +0.188354 0
-0.036048 -0.131502 0
+0.008262 +0.030138 0
+0.092496 +0.337423 0
+0.161337 +0.588554 0
+0.205882 +0.751051 0
+0.221620 +0.808462 0
-0.036048 -0.131502 0
+0.051632 +0.188351 0
+0.129507 +0.472437 0
+0.187088 +0.682490 0
+0.217479 +0.793359 0
+0.218530 +0.797190 0
+0.221620 +0.808464 0
+0.205887 +0.751072 0
+0.161320 +0.588490 0
+0.092471 +0.337332 0
+0.008238 +0.030053 0
+0.218529 +0.797188 0
+0.217475 +0.793344 0
+0.187073 +0.682436 0
+0.129498 +0.472404 0
+0.051608 +0.188264 0
-0.036075 -0.131601 0
+0.000000 +0.000000 0
+0.000000 +0.000000 0
+0.000000 +0.000000 0
+0.000000 +0.000000 0
+0.000000 +0.000000 0
+0.000000 +0.000000 0
+0.000000 +0.000000 0
+0.000000 +0.000000 0
+0.000000 +0.000000 0
+0.000000 +0.000000 0
+0.000000 +0.000000 0
+0.000000 +0.000000 0
+0.000000 +0.000000 0
+0.000000 +0.000000 0
+0.000000 +0.000000 0
+0.000000 +0.000000 0
+0.000000 +0.000000 0
+0.000000 +0.000000 0
+0.000000 +0.000000 0
+0.000000 +0.000000 0
+0.000000 +0.000000 0
+0.000000 +0.000000 0
+0.000000 +0.000000 0
+0.000000 +0.000000 0
+0.000000 +0.000000 0
+0.000000 +0.000000 0
+0.000000 +0.000000 0
+0.000000 +0.000000 0
+0.000000 +0.000000 0
+0.000000 +0.000000 0
+0.000000 +0.000000 0
+0.000000 +0.000000 0
+0.000000 +0.000000 0
+0.000000 +0.000000 0
+0.000000 +0.000000 0
+0.000000 +0.000000 0
+0.000000 +0.000000 0
+0.000000 +0.000000 0
+0.000000 +0.000000 0
+0.000000 +0.000000 0
+0.000000 +0.000000 0
+0.000000 +0.000000 0
+0.000000 +0.000000 0
+0.000000 +0.000000 0
-0.002475 -0.009028 0
+0.001965 +0.007169 0
+0.023406 +0.085385 0
+0.068349 +0.249334 0
+0.134550 +0.490835 0
-0.001641 -0.005987 0
-0.001720 -0.006275 0
+0.010085 +0.036790 0
+0.042940 +0.156645 0
+0.099560 +0.363193 0
+0.171994 +0.627430 0
-0.119914 -0.437443 0
-0.217265 -0.792577 0
-0.268418 -0.979182 0
-0.260104 -0.948851 0
-0.192571 -0.702494 0
-0.061312 -0.223663 0
-0.173154 -0.631661 0
-0.249768 -0.911146 0
-0.271993 -0.992224 0
-0.233109 -0.850376 0
-0.140334 -0.511935 0
-0.002479 -0.009044 0
+0.001963 +0.007162 0
+0.023399 +0.085357 0
+0.068346 +0.249326 0
+0.134551 +0.490838 0
-0.001640 -0.005983 0
-0.001726 -0.006297 0
+0.010083 +0.036783 0
+0.042937 +0.156634 0
+0.099559 +0.363188 0
+0.171998 +0.627442 0
-0.119900 -0.437392 0
-0.217246 -0.792508 0
-0.268398 -0.979109 0
-0.260078 -0.948758 0
-0.192542 -0.702389 0
-0.061305 -0.223640 0
-0.173154 -0.631660 0
-0.249742 -0.911054 0
-0.271970 -0.992139 0
-0.233082 -0.850276 0
-0.140306 -0.511832 0
-0.051165 -0.186647 0
+0.029705 +0.108364 0
-0.185555 -0.676901 0
-0.149309 -0.544675 0
-0.036961 -0.134832 0
-0.005057 -0.018447 0
-0.009905 -0.036133 0
-0.028620 -0.104404 0
+0.076410 +0.278740 0
+0.023556 +0.085933 0
+0.116537 +0.425125 0
+0.148119 +0.540335 0
-0.098956 -0.360990 0
-0.119666 -0.436540 0
-0.077744 -0.283610 0
-0.199916 -0.729289 0
-0.062275 -0.227177 0
-0.113101 -0.412590 0
-0.036254 -0.132255 0
+0.046421 +0.169343 0
-0.227704 -0.830659 0
-0.129282 -0.471618 0
-0.215851 -0.787419 0
-0.255038 -0.930371 0
-0.120173 -0.438389 0
-0.005917 -0.021584 0
-0.003999 -0.014588 0
-0.018887 -0.068898 0
-0.021691 -0.079130 0
-0.047563 -0.173510 0
-0.022899 -0.083534 0
-0.009997 -0.036470 0
+0.003056 +0.011148 0
+0.005889 +0.021482 0
+0.029536 +0.107746 0
-0.045211 -0.164929 0
+0.004948 +0.018050 0
-0.003800 -0.013862 0
+0.060769 +0.221684 0
+0.047080 +0.171747 0
+0.078890 +0.287787 0
+0.110810 +0.404231 0
+0.146793 +0.535496 0
+0.070908 +0.258671 0
+0.138504 +0.505259 0
+0.162265 +0.591937 0
+0.185763 +0.677660 0
-0.039033 -0.142392 0
-0.058389 -0.213002 0
-0.049505 -0.180591 0
-0.095825 -0.349567 0
-0.149791 -0.546432 0
-0.155366 -0.566773 0
-0.102825 -0.375102 0
-0.084104 -0.306810 0
-0.124396 -0.453794 0
-0.066827 -0.243783 0
-0.200661 -0.732004 0
-0.157464 -0.574425 0
-0.182555 -0.665957 0
-0.104226 -0.380215 0
-0.092886 -0.338846 0
-0.011158 -0.040705 0
-0.012380 -0.045160 0
+0.086472 +0.315446 0
-0.098734 -0.360177 0
+0.007650 +0.027908 0
+0.027291 +0.099557 0
+0.104340 +0.380630 0
-0.066219 -0.241567 0
-0.120985 -0.441350 0
-0.133657 -0.487579 0
-0.231086 -0.842994 0
-0.185735 -0.677557 0
-0.212704 -0.775937 0
-0.249820 -0.911335 0
-0.230960 -0.842535 0
-0.268349 -0.978930 0
-0.242170 -0.883429 0
-0.243416 -0.887974 0
-0.183872 -0.670760 0
-0.174006 -0.634770 0
-0.078014 -0.284591 0
-0.158420 -0.577910 0
-0.058422 -0.213121 0
-0.178540 -0.651310 0
-0.149329 -0.544749 0
-0.051245 -0.186940 0
+0.031171 +0.113710 0
-0.098936 -0.360916 0
-0.225767 -0.823592 0
-0.129288 -0.471637 0
-0.199845 -0.729030 0
-0.216035 -0.788089 0
-0.255178 -0.930883 0
-0.036479 -0.133075 0
-0.120236 -0.438616 0
-0.037304 -0.136083 0
-0.118502 -0.432293 0
-0.076970 -0.280783 0
-0.027663 -0.100915 0
-0.053124 -0.193795 0
-0.116696 -0.425703 0
+0.117403 +0.428282 0
+0.044804 +0.163445 0
-0.004560 -0.016636 0
-0.009891 -0.036082 0
+0.077201 +0.281627 0
+0.024110 +0.087951 0
+0.148495 +0.541707 0
-0.066220 -0.241569 0
-0.133660 -0.487589 0
-0.049499 -0.180572 0
-0.120974 -0.441311 0
-0.143745 -0.524379 0
-0.207351 -0.756410 0
-0.184289 -0.672280 0
-0.229947 -0.838841 0
-0.249093 -0.908686 0
-0.268269 -0.978638 0
-0.200077 -0.729877 0
-0.231162 -0.843274 0
-0.182612 -0.666162 0
-0.183968 -0.671110 0
-0.243866 -0.889617 0
-0.242241 -0.883689 0
-0.174166 -0.635354 0
-0.158450 -0.578021 0
-0.098778 -0.360338 0
-0.078160 -0.285126 0
+0.027169 +0.099112 0
-0.058457 -0.213251 0
-0.038545 -0.140610 0
-0.095239 -0.347430 0
-0.019140 -0.069822 0
-0.058519 -0.213477 0
-0.047593 -0.173618 0
-0.084166 -0.307036 0
-0.101445 -0.370069 0
-0.152813 -0.557459 0
-0.125157 -0.456568 0
-0.158780 -0.579225 0
-0.045044 -0.164320 0
-0.068596 -0.250235 0
-0.002480 -0.009046 0
-0.005730 -0.020901 0
-0.092347 -0.336881 0
-0.099871 -0.364327 0
-0.007659 -0.027939 0
+0.006749 +0.024619 0
+0.072123 +0.263104 0
+0.086149 +0.314270 0
+0.162675 +0.593435 0
+0.103544 +0.377727 0
-0.005947 -0.021696 0
-0.021760 -0.079381 0
-0.003980 -0.014518 0
+0.003234 +0.011796 0
-0.009829 -0.035856 0
-0.022710 -0.082846 0
+0.006489 +0.023672 0
+0.005753 +0.020986 0
+0.029729 +0.108452 0
+0.079178 +0.288841 0
+0.047758 +0.174219 0
+0.061923 +0.225894 0
+0.111417 +0.406447 0
+0.139094 +0.507410 0
+0.146938 +0.536025 0
+0.185957 +0.678365 0
-0.050375 -0.183766 0
+0.030453 +0.111090 0
-0.178526 -0.651258 0
-0.149290 -0.544606 0
-0.037507 -0.136823 0
-0.004967 -0.018120 0
-0.009899 -0.036110 0
-0.027491 -0.100288 0
+0.076701 +0.279804 0
+0.024035 +0.087680 0
+0.116692 +0.425691 0
+0.148227 +0.540729 0
-0.098941 -0.360933 0
-0.118812 -0.433423 0
-0.077314 -0.282040 0
-0.199870 -0.729121 0
-0.062272 -0.227167 0
-0.113860 -0.415357 0
-0.036231 -0.132169 0
+0.046432 +0.169383 0
-0.225731 -0.823460 0
-0.129285 -0.471630 0
-0.215961 -0.787820 0
-0.255156 -0.930802 0
-0.120172 -0.438385 0
-0.005959 -0.021739 0
-0.003991 -0.014558 0
-0.019274 -0.070311 0
-0.021793 -0.079501 0
-0.047773 -0.174273 0
-0.022215 -0.081040 0
-0.009920 -0.036188 0
+0.003089 +0.011267 0
+0.006126 +0.022348 0
+0.029701 +0.108348 0
-0.043872 -0.160046 0
+0.005772 +0.021057 0
-0.002718 -0.009917 0
+0.061277 +0.223537 0
+0.047493 +0.173252 0
+0.078994 +0.288169 0
+0.111019 +0.404995 0
+0.146833 +0.535643 0
+0.071409 +0.260496 0
+0.138635 +0.505737 0
+0.162349 +0.592244 0
+0.185820 +0.677864 0
-0.038735 -0.141303 0
-0.058795 -0.214483 0
-0.049501 -0.180578 0
-0.095484 -0.348325 0
-0.143744 -0.524373 0
-0.152986 -0.558088 0
-0.101768 -0.371248 0
-0.084247 -0.307332 0
-0.124933 -0.455752 0
-0.066676 -0.243232 0
-0.200122 -0.730039 0
-0.157770 -0.575541 0
-0.182533 -0.665876 0
-0.104218 -0.380186 0
-0.093392 -0.340691 0
-0.010773 -0.039298 0
-0.012369 -0.045123 0
+0.086564 +0.315783 0
-0.098712 -0.360098 0
+0.007668 +0.027974 0
+0.027315 +0.099643 0
+0.104356 +0.380687 0
-0.066219 -0.241566 0
-0.120973 -0.441306 0
-0.133652 -0.487559 0
-0.229914 -0.838720 0
-0.184259 -0.672170 0
-0.207340 -0.756373 0
-0.249072 -0.908609 0
-0.231142 -0.843199 0
-0.268248 -0.978561 0
-0.242195 -0.883522 0
-0.243835 -0.889503 0
-0.183923 -0.670947 0
-0.174083 -0.635051 0
-0.078001 -0.284547 0
-0.158403 -0.577850 0
-0.058409 -0.213076 0
-0.178548 -0.651338 0
-0.149326 -0.544738 0
-0.051273 -0.187043 0
+0.031151 +0.113638 0
-0.098942 -0.360939 0
-0.225760 -0.823565 0
-0.129285 -0.471627 0
-0.199850 -0.729046 0
-0.216016 -0.788020 0
-0.255163 -0.930828 0
-0.036469 -0.133038 0
-0.120214 -0.438538 0
-0.037323 -0.136154 0
-0.118527 -0.432384 0
-0.076988 -0.280850 0
-0.027691 -0.101016 0
-0.053137 -0.193841 0
-0.116718 -0.425785 0
+0.117393 +0.428247 0
+0.044802 +0.163437 0
-0.004576 -0.016693 0
-0.009900 -0.036116 0
+0.077187 +0.281577 0
+0.024093 +0.087891 0
+0.148486 +0.541673 0
-0.066219 -0.241564 0
-0.133652 -0.487561 0
-0.049503 -0.180587 0
-0.120976 -0.441317 0
-0.143754 -0.524412 0
-0.207350 -0.756407 0
-0.184279 -0.672246 0
-0.229931 -0.838783 0
-0.249083 -0.908649 0
-0.268249 -0.978565 0
-0.200084 -0.729901 0
-0.231157 -0.843253 0
-0.182612 -0.666165 0
-0.183956 -0.671067 0
-0.243849 -0.889554 0
-0.242217 -0.883601 0
-0.174146 -0.635278 0
-0.158424 -0.577927 0
-0.098771 -0.360313 0
-0.078144 -0.285067 0
+0.027181 +0.099156 0
-0.058435 -0.213171 0
-0.038555 -0.140646 0
-0.095253 -0.347479 0
-0.019150 -0.069859 0
-0.058540 -0.213554 0
-0.047618 -0.173710 0
-0.084195 -0.307142 0
-0.101467 -0.370151 0
-0.152831 -0.557523 0
-0.125182 -0.456659 0
-0.158794 -0.579277 0
-0.045074 -0.164428 0
-0.068623 -0.250334 0
-0.002504 -0.009135 0
-0.005747 -0.020965 0
-0.092366 -0.336947 0
-0.099876 -0.364346 0
-0.007666 -0.027965 0
+0.006752 +0.024633 0
+0.072109 +0.263051 0
+0.086143 +0.314246 0
+0.162670 +0.593416 0
+0.103546 +0.377735 0
-0.005951 -0.021710 0
-0.021776 -0.079440 0
-0.003982 -0.014525 0
+0.003228 +0.011776 0
-0.009842 -0.035905 0
-0.022734 -0.082932 0
+0.006473 +0.023614 0
+0.005729 +0.020899 0
+0.029724 +0.108434 0
+0.079172 +0.288819 0
+0.047743 +0.174164 0
+0.061905 +0.225827 0
+0.111406 +0.406406 0
+0.139083 +0.507372 0
+0.146932 +0.536003 0
+0.185949 +0.678338 0
+0.287966 +1.050491 0
+0.243646 +0.888815 0
+0.243635 +0.888774 0
+0.287970 +1.050505 0
+0.260738 +0.951165 0
+0.260744 +0.951186 0
+0.255781 +0.933082 0
+0.282307 +1.029848 0
+0.177167 +0.646301 0
+0.233740 +0.852678 0
+0.177170 +0.646311 0
+0.098318 +0.358662 0
+0.177152 +0.646245 0
+0.282301 +1.029827 0
+0.233730 +0.852640 0
+0.282304 +1.029836 0
+0.282309 +1.029855 0
+0.299402 +1.092211 0
+0.260747 +0.951198 0
+0.233744 +0.852690 0
+0.177154 +0.646252 0
+0.098297 +0.358585 0
+0.260745 +0.951192 0
+0.233735 +0.852658 0
+0.255787 +0.933104 0
+0.242015 +0.882864 0
+0.242015 +0.882863 0
+0.236276 +0.861927 0
+0.262223 +0.956582 0
+0.278268 +1.015115 0
+0.278271 +1.015124 0
+0.262223 +0.956584 0
+0.236278 +0.861935 0
+0.251223 +0.916453 0
+0.199890 +0.729192 0
+0.289405 +1.055742 0
+0.261603 +0.954321 0
+0.266918 +0.973708 0
+0.213386 +0.778427 0
+0.208811 +0.761735 0
+0.136377 +0.497500 0
+0.139913 +0.510398 0
+0.053902 +0.196635 0
+0.213387 +0.778431 0
+0.139913 +0.510401 0
+0.136378 +0.497502 0
+0.053903 +0.196637 0
+0.199877 +0.729145 0
+0.251216 +0.916430 0
+0.136357 +0.497427 0
+0.208796 +0.761682 0
+0.213372 +0.778377 0
+0.266909 +0.973678 0
+0.261595 +0.954291 0
+0.289402 +1.055731 0
+0.295104 +1.076532 0
+0.295107 +1.076543 0
+0.266910 +0.973682 0
+0.295105 +1.076536 0
+0.289406 +1.055744 0
+0.289408 +1.055752 0
+0.295108 +1.076547 0
+0.266919 +0.973713 0
+0.261606 +0.954331 0
+0.208812 +0.761740 0
+0.278275 +1.015140 0
+0.251227 +0.916471 0
+0.236286 +0.861965 0
+0.199892 +0.729202 0
+0.053879 +0.196550 0
+0.139894 +0.510329 0
+0.053881 +0.196556 0
+0.136363 +0.497450 0
+0.139895 +0.510334 0
+0.213374 +0.778381 0
+0.208801 +0.761701 0
+0.261598 +0.954304 0
+0.199884 +0.729172 0
+0.236279 +0.861940 0
+0.251221 +0.916448 0
+0.278274 +1.015134 0
+0.262228 +0.956600 0
+0.262230 +0.956608 0
+0.242020 +0.882883 0
+0.242022 +0.882889 0
