# vtk DataFile Version 2.0
MyTitle
ASCII
DATASET UNSTRUCTURED_GRID
POINTS 565 double
0.400000 0.000000 0.000000
0.000000 0.400000 0.000000
-0.400000 0.000000 0.000000
0.000000 -0.400000 0.000000
0.000000 -1.500000 0.000000
1.000000 0.000000 0.000000
0.000000 1.500000 0.000000
-1.000000 0.000000 0.000000
0.333333 0.066667 0.000000
0.266667 0.133333 0.000000
0.200000 0.200000 0.000000
0.133333 0.266667 0.000000
0.066667 0.333333 0.000000
0.366667 0.033333 0.000000
0.300000 0.100000 0.000000
0.233333 0.166667 0.000000
0.166667 0.233333 0.000000
0.100000 0.300000 0.000000
0.033333 0.366667 0.000000
-0.066667 0.333333 0.000000
-0.133333 0.266667 0.000000
-0.200000 0.200000 0.000000
-0.266667 0.133333 0.000000
-0.333333 0.066667 0.000000
-0.033333 0.366667 0.000000
-0.100000 0.300000 0.000000
-0.166667 0.233333 0.000000
-0.233333 0.166667 0.000000
-0.300000 0.100000 0.000000
-0.366667 0.033333 0.000000
-0.333333 -0.066667 0.000000
-0.266667 -0.133333 0.000000
-0.200000 -0.200000 0.000000
-0.133333 -0.266667 0.000000
-0.066667 -0.333333 0.000000
-0.366667 -0.033333 0.000000
-0.300000 -0.100000 0.000000
-0.233333 -0.166667 0.000000
-0.166667 -0.233333 0.000000
-0.100000 -0.300000 0.000000
-0.033333 -0.366667 0.000000
0.066667 -0.333333 0.000000
0.133333 -0.266667 0.000000
0.200000 -0.200000 0.000000
0.266667 -0.133333 0.000000
0.333333 -0.066667 0.000000
0.033333 -0.366667 0.000000
0.100000 -0.300000 0.000000
0.166667 -0.233333 0.000000
0.233333 -0.166667 0.000000
0.300000 -0.100000 0.000000
0.366667 -0.033333 0.000000
0.318109 -1.422081 0.000000
0.579456 -1.222505 0.000000
0.771420 -0.954490 0.000000
0.900932 -0.650940 0.000000
0.975602 -0.329323 0.000000
0.163611 -1.479787 0.000000
0.457521 -1.333798 0.000000
0.683799 -1.094506 0.000000
0.843445 -0.805823 0.000000
0.944761 -0.491642 0.000000
0.993923 -0.165116 0.000000
0.975602 0.329323 0.000000
0.900932 0.650940 0.000000
0.771420 0.954490 0.000000
0.579456 1.222505 0.000000
0.318109 1.422081 0.000000
0.993923 0.165116 0.000000
0.944761 0.491642 0.000000
0.843445 0.805823 0.000000
0.683799 1.094506 0.000000
0.457521 1.333798 0.000000
0.163611 1.479787 0.000000
-0.318109 1.422081 0.000000
-0.579456 1.222505 0.000000
-0.771420 0.954490 0.000000
-0.900932 0.650940 0.000000
-0.975602 0.329323 0.000000
-0.163611 1.479787 0.000000
-0.457521 1.333798 0.000000
-0.683799 1.094506 0.000000
-0.843445 0.805823 0.000000
-0.944761 0.491642 0.000000
-0.993923 0.165116 0.000000
-0.975602 -0.329323 0.000000
-0.900932 -0.650940 0.000000
-0.771420 -0.954490 0.000000
-0.579456 -1.222505 0.000000
-0.318109 -1.422081 0.000000
-0.993923 -0.165116 0.000000
-0.944761 -0.491642 0.000000
-0.843445 -0.805823 0.000000
-0.683799 -1.094506 0.000000
-0.457521 -1.333798 0.000000
-0.163611 -1.479787 0.000000
0.000000 -1.316667 0.000000
0.000000 -1.133333 0.000000
0.000000 -0.950000 0.000000
0.000000 -0.766667 0.000000
0.000000 -0.583333 0.000000
0.000000 -1.408333 0.000000
0.000000 -1.225000 0.000000
0.000000 -1.041667 0.000000
0.000000 -0.858333 0.000000
0.000000 -0.675000 0.000000
0.000000 -0.491667 0.000000
0.900000 0.000000 0.000000
0.800000 0.000000 0.000000
0.700000 0.000000 0.000000
0.600000 0.000000 0.000000
0.500000 0.000000 0.000000
0.950000 0.000000 0.000000
0.850000 0.000000 0.000000
0.750000 0.000000 0.000000
0.650000 0.000000 0.000000
0.550000 0.000000 0.000000
0.450000 0.000000 0.000000
0.000000 1.316667 0.000000
0.000000 1.133333 0.000000
0.000000 0.950000 0.000000
0.000000 0.766667 0.000000
0.000000 0.583333 0.000000
0.000000 1.408333 0.000000
0.000000 1.225000 0.000000
0.000000 1.041667 0.000000
0.000000 0.858333 0.000000
0.000000 0.675000 0.000000
0.000000 0.491667 0.000000
-0.900000 0.000000 0.000000
-0.800000 0.000000 0.000000
-0.700000 0.000000 0.000000
-0.600000 0.000000 0.000000
-0.500000 0.000000 0.000000
-0.950000 0.000000 0.000000
-0.850000 0.000000 0.000000
-0.750000 0.000000 0.000000
-0.650000 0.000000 0.000000
-0.550000 0.000000 0.000000
-0.450000 0.000000 0.000000
0.395719 -0.864575 0.000000
0.259395 -0.559861 0.000000
0.669282 -0.470468 0.000000
0.468822 -0.302562 0.000000
0.470294 -1.024958 0.000000
0.204156 -1.007017 0.000000
0.247763 -1.189717 0.000000
0.323269 -0.707398 0.000000
0.131880 -0.665738 0.000000
0.165412 -0.833111 0.000000
0.195001 -0.411834 0.000000
0.098639 -0.498826 0.000000
0.795221 -0.564672 0.000000
0.555245 -0.685751 0.000000
0.645327 -0.806816 0.000000
0.568795 -0.386755 0.000000
0.380065 -0.445574 0.000000
0.456725 -0.556587 0.000000
0.363238 -0.216050 0.000000
0.285916 -0.319579 0.000000
0.741626 -0.237527 0.000000
0.860178 -0.284263 0.000000
0.534262 -0.151178 0.000000
0.635836 -0.193746 0.000000
0.433160 -0.108667 0.000000
0.282936 -1.305899 0.000000
0.123881 -1.253192 0.000000
0.524875 -1.123732 0.000000
0.359028 -1.107338 0.000000
0.433006 -0.944767 0.000000
0.299938 -0.935796 0.000000
0.225960 -1.098367 0.000000
0.102078 -1.070175 0.000000
0.184784 -0.920064 0.000000
0.082706 -0.891556 0.000000
0.359494 -0.785987 0.000000
0.244341 -0.770255 0.000000
0.291332 -0.633629 0.000000
0.195638 -0.612799 0.000000
0.148646 -0.749424 0.000000
0.065940 -0.716202 0.000000
0.115259 -0.582282 0.000000
0.049319 -0.541080 0.000000
0.227198 -0.485847 0.000000
0.146820 -0.455330 0.000000
0.164167 -0.339250 0.000000
0.082653 -0.416080 0.000000
0.708374 -0.880653 0.000000
0.557810 -0.915887 0.000000
0.848077 -0.607806 0.000000
0.720274 -0.685744 0.000000
0.732252 -0.517570 0.000000
0.612264 -0.578110 0.000000
0.600286 -0.746284 0.000000
0.475482 -0.775163 0.000000
0.505985 -0.621169 0.000000
0.389997 -0.631993 0.000000
0.619038 -0.428612 0.000000
0.512760 -0.471671 0.000000
0.518808 -0.344658 0.000000
0.424443 -0.374068 0.000000
0.418395 -0.501081 0.000000
0.319730 -0.502718 0.000000
0.332990 -0.382577 0.000000
0.240459 -0.365707 0.000000
0.416030 -0.259306 0.000000
0.324577 -0.267815 0.000000
0.314952 -0.174692 0.000000
0.242958 -0.259790 0.000000
0.917890 -0.306793 0.000000
0.827700 -0.424467 0.000000
0.880089 -0.142131 0.000000
0.770813 -0.118764 0.000000
0.800902 -0.260895 0.000000
0.705454 -0.353998 0.000000
0.688731 -0.215637 0.000000
0.602315 -0.290251 0.000000
0.667918 -0.096873 0.000000
0.567131 -0.075589 0.000000
0.585049 -0.172462 0.000000
0.501542 -0.226870 0.000000
0.483711 -0.129922 0.000000
0.398199 -0.162358 0.000000
0.466580 -0.054333 0.000000
0.383247 -0.087667 0.000000
0.689510 0.478404 0.000000
0.468822 0.302562 0.000000
0.396294 0.865300 0.000000
0.257800 0.558065 0.000000
0.795221 0.564672 0.000000
0.745015 0.238857 0.000000
0.860178 0.284263 0.000000
0.568839 0.386777 0.000000
0.534533 0.151292 0.000000
0.637973 0.194587 0.000000
0.363420 0.216203 0.000000
0.433226 0.108706 0.000000
0.468341 1.022695 0.000000
0.561146 0.691924 0.000000
0.647386 0.807913 0.000000
0.321648 0.705619 0.000000
0.370475 0.437175 0.000000
0.464928 0.564333 0.000000
0.194273 0.411098 0.000000
0.287201 0.320593 0.000000
0.201943 1.004577 0.000000
0.246678 1.188518 0.000000
0.130806 0.664551 0.000000
0.164251 0.831835 0.000000
0.098186 0.498329 0.000000
0.917890 0.306793 0.000000
0.880089 0.142131 0.000000
0.848077 0.607806 0.000000
0.827700 0.424467 0.000000
0.742366 0.521538 0.000000
0.717263 0.358630 0.000000
0.802597 0.261560 0.000000
0.772507 0.119428 0.000000
0.691494 0.216722 0.000000
0.668987 0.097293 0.000000
0.629175 0.432591 0.000000
0.603406 0.290682 0.000000
0.518830 0.344669 0.000000
0.501677 0.226927 0.000000
0.586253 0.172940 0.000000
0.567266 0.075646 0.000000
0.483880 0.129999 0.000000
0.466613 0.054353 0.000000
0.416121 0.259382 0.000000
0.398323 0.162455 0.000000
0.315043 0.174768 0.000000
0.383280 0.087686 0.000000
0.709403 0.881201 0.000000
0.721304 0.686292 0.000000
0.523898 1.122600 0.000000
0.557863 0.915304 0.000000
0.432317 0.943998 0.000000
0.478720 0.778612 0.000000
0.604266 0.749918 0.000000
0.625328 0.585164 0.000000
0.513037 0.628128 0.000000
0.516883 0.475555 0.000000
0.358971 0.785459 0.000000
0.393288 0.634976 0.000000
0.289724 0.631842 0.000000
0.314137 0.497620 0.000000
0.417701 0.500754 0.000000
0.419648 0.369868 0.000000
0.328838 0.378884 0.000000
0.325310 0.268398 0.000000
0.226036 0.484581 0.000000
0.240737 0.365845 0.000000
0.163803 0.338882 0.000000
0.243601 0.260297 0.000000
0.282394 1.305299 0.000000
0.357509 1.105607 0.000000
0.123339 1.252592 0.000000
0.100971 1.068955 0.000000
0.224311 1.096547 0.000000
0.299119 0.934939 0.000000
0.183097 0.918206 0.000000
0.242949 0.768727 0.000000
0.082126 0.890918 0.000000
0.065403 0.715609 0.000000
0.147529 0.748193 0.000000
0.194303 0.611308 0.000000
0.114496 0.581440 0.000000
0.146229 0.454713 0.000000
0.049093 0.540831 0.000000
0.082426 0.415831 0.000000
-0.390034 0.858069 0.000000
-0.258592 0.558961 0.000000
-0.689510 0.478404 0.000000
-0.468822 0.302562 0.000000
-0.467554 1.021673 0.000000
-0.203612 1.006383 0.000000
-0.246562 1.188338 0.000000
-0.321255 0.705049 0.000000
-0.131464 0.665265 0.000000
-0.164446 0.832004 0.000000
-0.194863 0.411679 0.000000
-0.098507 0.498678 0.000000
-0.795221 0.564672 0.000000
-0.560996 0.691029 0.000000
-0.646871 0.807178 0.000000
-0.568795 0.386755 0.000000
-0.380065 0.445574 0.000000
-0.458051 0.556986 0.000000
-0.363238 0.216050 0.000000
-0.285916 0.319579 0.000000
-0.745060 0.238879 0.000000
-0.860178 0.284263 0.000000
-0.534459 0.151255 0.000000
-0.637949 0.194576 0.000000
-0.433185 0.108677 0.000000
-0.282336 1.305210 0.000000
-0.123281 1.252502 0.000000
-0.523505 1.122089 0.000000
-0.357058 1.105006 0.000000
-0.428794 0.939871 0.000000
-0.296823 0.932226 0.000000
-0.225087 1.097361 0.000000
-0.101806 1.069858 0.000000
-0.184029 0.919194 0.000000
-0.082223 0.891002 0.000000
-0.355644 0.781559 0.000000
-0.242850 0.768527 0.000000
-0.289923 0.632005 0.000000
-0.195028 0.612113 0.000000
-0.147955 0.748634 0.000000
-0.065732 0.715966 0.000000
-0.114986 0.581972 0.000000
-0.049254 0.541006 0.000000
-0.226728 0.485320 0.000000
-0.146685 0.455179 0.000000
-0.164098 0.339173 0.000000
-0.082587 0.416006 0.000000
-0.709146 0.880834 0.000000
[...]
POINT_DATA 565
VECTORS sol double
+0.000004 -0.000005 0
+0.000010 -0.000013 0
+0.000003 -0.000004 0
+0.000000 -0.000000 0
+0.000000 +0.000000 0
+0.000000 +0.000000 0
+0.000000 +0.000000 0
+0.000000 +0.000000 0
-0.097156 +0.123653 0
-0.165715 +0.210910 0
-0.192812 +0.245398 0
-0.172233 +0.219206 0
-0.105064 +0.133719 0
-0.051177 +0.065135 0
-0.135959 +0.173039 0
-0.184991 +0.235444 0
-0.188527 +0.239945 0
-0.144057 +0.183346 0
-0.056556 +0.071981 0
+0.105081 -0.133740 0
+0.172236 -0.219210 0
+0.192827 -0.245417 0
+0.165728 -0.210928 0
+0.097165 -0.123665 0
+0.056574 -0.072004 0
+0.144073 -0.183367 0
+0.188549 -0.239973 0
+0.185004 -0.235460 0
+0.135972 -0.173056 0
+0.051186 -0.065146 0
-0.097161 +0.123659 0
-0.165723 +0.210920 0
-0.192822 +0.245410 0
-0.172244 +0.219220 0
-0.105076 +0.133733 0
-0.051180 +0.065139 0
-0.135965 +0.173048 0
-0.185000 +0.235456 0
-0.188538 +0.239958 0
-0.144068 +0.183360 0
-0.056567 +0.071995 0
+0.105070 -0.133726 0
+0.172224 -0.219196 0
+0.192819 -0.245407 0
+0.165723 -0.210921 0
+0.097163 -0.123663 0
+0.056564 -0.071991 0
+0.144062 -0.183353 0
+0.188539 -0.239960 0
+0.184996 -0.235451 0
+0.135968 -0.173051 0
+0.051185 -0.065145 0
+0.000000 +0.000000 0
+0.000000 +0.000000 0
+0.000000 +0.000000 0
+0.000000 +0.000000 0
+0.000000 +0.000000 0
+0.000000 +0.000000 0
+0.000000 +0.000000 0
+0.000000 +0.000000 0
+0.000000 +0.000000 0
+0.000000 +0.000000 0
+0.000000 +0.000000 0
+0.000000 +0.000000 0
+0.000000 +0.000000 0
+0.000000 +0.000000 0
+0.000000 +0.000000 0
+0.000000 +0.000000 0
+0.000000 +0.000000 0
+0.000000 +0.000000 0
+0.000000 +0.000000 0
+0.000000 +0.000000 0
+0.000000 +0.000000 0
+0.000000 +0.000000 0
+0.000000 +0.000000 0
+0.000000 +0.000000 0
+0.000000 +0.000000 0
+0.000000 +0.000000 0
+0.000000 +0.000000 0
+0.000000 +0.000000 0
+0.000000 +0.000000 0
+0.000000 +0.000000 0
+0.000000 +0.000000 0
+0.000000 +0.000000 0
+0.000000 +0.000000 0
+0.000000 +0.000000 0
+0.000000 +0.000000 0
+0.000000 +0.000000 0
+0.000000 +0.000000 0
+0.000000 +0.000000 0
+0.000000 +0.000000 0
+0.000000 +0.000000 0
+0.000000 +0.000000 0
+0.000000 +0.000000 0
+0.000000 +0.000000 0
+0.000000 +0.000000 0
+0.000003 -0.000004 0
-0.000002 +0.000002 0
+0.000019 -0.000024 0
+0.000001 -0.000001 0
-0.000000 +0.000000 0
+0.000003 -0.000003 0
+0.000014 -0.000018 0
+0.000003 -0.000004 0
+0.000008 -0.000010 0
-0.000002 +0.000003 0
-0.000004 +0.000006 0
+0.000003 -0.000003 0
+0.000003 -0.000003 0
+0.000014 -0.000018 0
-0.000006 +0.000008 0
+0.000002 -0.000003 0
+0.000003 -0.000004 0
-0.000011 +0.000013 0
-0.000017 +0.000021 0
+0.000025 -0.000032 0
+0.000002 -0.000002 0
+0.000003 -0.000004 0
-0.000006 +0.000007 0
-0.000015 +0.000020 0
+0.000017 -0.000021 0
-0.000007 +0.000009 0
+0.000001 -0.000002 0
-0.000005 +0.000006 0
+0.000003 -0.000004 0
-0.000016 +0.000020 0
-0.000000 +0.000000 0
-0.000004 +0.000006 0
+0.000003 -0.000003 0
-0.000000 +0.000000 0
-0.000000 +0.000001 0
-0.000000 +0.000001 0
-0.000000 +0.000000 0
+0.000001 -0.000002 0
-0.000000 +0.000000 0
-0.000000 +0.000000 0
-0.000001 +0.000001 0
+0.000001 -0.000001 0
+0.000001 -0.000002 0
+0.000002 -0.000003 0
+0.444587 -0.565840 0
+0.461359 -0.587186 0
+0.425888 -0.542042 0
+0.435542 -0.554329 0
+0.271909 -0.346067 0
+0.236528 -0.301036 0
+0.140048 -0.178244 0
+0.509251 -0.648140 0
+0.260373 -0.331386 0
+0.277558 -0.353257 0
+0.329277 -0.419081 0
+0.192734 -0.245299 0
+0.229264 -0.291792 0
+0.509097 -0.647944 0
+0.323365 -0.411557 0
+0.480654 -0.611744 0
+0.531077 -0.675919 0
+0.582507 -0.741375 0
+0.310929 -0.395730 0
+0.373789 -0.475733 0
+0.231997 -0.295270 0
+0.137138 -0.174540 0
+0.234719 -0.298734 0
+0.259352 -0.330085 0
+0.173369 -0.220652 0
+0.068089 -0.086659 0
+0.062431 -0.079458 0
+0.134206 -0.170808 0
+0.220686 -0.280875 0
+0.368552 -0.469067 0
+0.355661 -0.452662 0
+0.193033 -0.245679 0
+0.108981 -0.138704 0
+0.264919 -0.337171 0
+0.133784 -0.170271 0
+0.492572 -0.626912 0
+0.407152 -0.518196 0
+0.498133 -0.633989 0
+0.372735 -0.474392 0
+0.276531 -0.351950 0
+0.130820 -0.166499 0
+0.231694 -0.294885 0
+0.100327 -0.127690 0
+0.402970 -0.512873 0
+0.269856 -0.343455 0
+0.250573 -0.318912 0
+0.149608 -0.190411 0
+0.164696 -0.209614 0
+0.322087 -0.409931 0
+0.118844 -0.151257 0
+0.299957 -0.381765 0
+0.342287 -0.435639 0
+0.491526 -0.625581 0
+0.428015 -0.544748 0
+0.502592 -0.639665 0
+0.564818 -0.718863 0
+0.567927 -0.722819 0
+0.466278 -0.593447 0
+0.552055 -0.702618 0
+0.469594 -0.597667 0
+0.498552 -0.634524 0
+0.568673 -0.723769 0
+0.513824 -0.653960 0
+0.462069 -0.588090 0
+0.362580 -0.461467 0
+0.380523 -0.484304 0
+0.352274 -0.448351 0
+0.238401 -0.303421 0
+0.282938 -0.360104 0
+0.072647 -0.092460 0
+0.200235 -0.254846 0
+0.068959 -0.087767 0
+0.112508 -0.143193 0
+0.191861 -0.244188 0
+0.343724 -0.437468 0
+0.252641 -0.321545 0
+0.381910 -0.486069 0
+0.127090 -0.161752 0
+0.117090 -0.149024 0
+0.252607 -0.321501 0
+0.343643 -0.437365 0
+0.207477 -0.264063 0
+0.248673 -0.316494 0
+0.088536 -0.112683 0
+0.135897 -0.172961 0
-0.401691 +0.511245 0
-0.435548 +0.554336 0
-0.444043 +0.565148 0
-0.459203 +0.584443 0
-0.229360 +0.291914 0
-0.230230 +0.293021 0
-0.137092 +0.174482 0
-0.480772 +0.611895 0
-0.234827 +0.298872 0
-0.259313 +0.330036 0
-0.311175 +0.396043 0
-0.173427 +0.220726 0
-0.275279 +0.350356 0
-0.500932 +0.637553 0
-0.319584 +0.406744 0
-0.508634 +0.647355 0
-0.521519 +0.663754 0
-0.582069 +0.740819 0
-0.327863 +0.417281 0
-0.375786 +0.478275 0
-0.236041 +0.300417 0
-0.140558 +0.178892 0
-0.258509 +0.329012 0
-0.276354 +0.351725 0
-0.191819 +0.244134 0
-0.072629 +0.092437 0
-0.068976 +0.087788 0
-0.118891 +0.151316 0
-0.200218 +0.254824 0
-0.326430 +0.415458 0
-0.332938 +0.423741 0
-0.190627 +0.242618 0
-0.112322 +0.142955 0
-0.251720 +0.320372 0
-0.127316 +0.162039 0
-0.458472 +0.583512 0
-0.381644 +0.485730 0
-0.469634 +0.597719 0
-0.343712 +0.437453 0
-0.252878 +0.321846 0
-0.117154 +0.149106 0
-0.207582 +0.264196 0
-0.088561 +0.112715 0
-0.380625 +0.484433 0
-0.248825 +0.316688 0
-0.238533 +0.303589 0
-0.135923 +0.172993 0
-0.162595 +0.206940 0
-0.297920 +0.379173 0
-0.136078 +0.173191 0
-0.322609 +0.410594 0
-0.369490 +0.470262 0
-0.498880 +0.634940 0
-0.420814 +0.535583 0
-0.475812 +0.605581 0
-0.559848 +0.712536 0
-0.551944 +0.702477 0
-0.492649 +0.627010 0
-0.568517 +0.723569 0
-0.496608 +0.632049 0
-0.507219 +0.645554 0
-0.568311 +0.723308 0
-0.494032 +0.628770 0
-0.456341 +0.580800 0
-0.353343 +0.449711 0
-0.401007 +0.510374 0
-0.363003 +0.462005 0
-0.249872 +0.318020 0
-0.283955 +0.361398 0
-0.068489 +0.087168 0
-0.222339 +0.282978 0
-0.062390 +0.079406 0
-0.108263 +0.137790 0
-0.193322 +0.246047 0
-0.355845 +0.452896 0
-0.263840 +0.335798 0
-0.406131 +0.516896 0
-0.133005 +0.169280 0
-0.129826 +0.165234 0
-0.274957 +0.349947 0
-0.370654 +0.471743 0
-0.230223 +0.293012 0
-0.268690 +0.341970 0
-0.099864 +0.127100 0
-0.149153 +0.189832 0
+0.449338 -0.571887 0
+0.460257 -0.585784 0
+0.401704 -0.511262 0
+0.435538 -0.554324 0
+0.276748 -0.352226 0
+0.236441 -0.300926 0
+0.140619 -0.178970 0
+0.508554 -0.647253 0
+0.259648 -0.330462 0
+0.276516 -0.351931 0
+0.329024 -0.418760 0
+0.192471 -0.244964 0
+0.229358 -0.291911 0
+0.501542 -0.638328 0
+0.320920 -0.408446 0
+0.480773 -0.611896 0
+0.531101 -0.675949 0
+0.582388 -0.741225 0
+0.310940 -0.395744 0
+0.373804 -0.475753 0
+0.230210 -0.292995 0
+0.137093 -0.174482 0
+0.234800 -0.298838 0
+0.259322 -0.330048 0
+0.173391 -0.220680 0
+0.068539 -0.087232 0
+0.062391 -0.079407 0
+0.136893 -0.174228 0
+0.222909 -0.283704 0
+0.374280 -0.476359 0
+0.356628 -0.453892 0
+0.193187 -0.245875 0
+0.108787 -0.138457 0
+0.264486 -0.336619 0
+0.133136 -0.169446 0
+0.493539 -0.628143 0
+0.406092 -0.516846 0
+0.496855 -0.632364 0
+0.371785 -0.473183 0
+0.275550 -0.350702 0
+0.130426 -0.165997 0
+0.231169 -0.294216 0
+0.100196 -0.127523 0
+0.402165 -0.511848 0
+0.269599 -0.343127 0
+0.250450 -0.318756 0
+0.149488 -0.190258 0
+0.163330 -0.207876 0
+0.324097 -0.412489 0
+0.118890 -0.151316 0
+0.298567 -0.379995 0
+0.326434 -0.415463 0
+0.475993 -0.605812 0
+0.421794 -0.536831 0
+0.502990 -0.640171 0
+0.562547 -0.715972 0
+0.567955 -0.722855 0
+0.458486 -0.583530 0
+0.551951 -0.702486 0
+0.469656 -0.597747 0
+0.498576 -0.634554 0
+0.568880 -0.724032 0
+0.513335 -0.653337 0
+0.462081 -0.588105 0
+0.362462 -0.461317 0
+0.380531 -0.484314 0
+0.352285 -0.448365 0
+0.238410 -0.303432 0
+0.282949 -0.360118 0
+0.072629 -0.092437 0
+0.200220 -0.254826 0
+0.068978 -0.087790 0
+0.112325 -0.142960 0
+0.190615 -0.242602 0
+0.332921 -0.423719 0
+0.251729 -0.320384 0
+0.381653 -0.485742 0
+0.127322 -0.162047 0
+0.117136 -0.149083 0
+0.252863 -0.321827 0
+0.343698 -0.437435 0
+0.207543 -0.264147 0
+0.248689 -0.316514 0
+0.088545 -0.112694 0
+0.135910 -0.172977 0
-0.401702 +0.511259 0
-0.435561 +0.554352 0
-0.444046 +0.565152 0
-0.459214 +0.584456 0
-0.229365 +0.291921 0
-0.230234 +0.293026 0
-0.137095 +0.174485 0
-0.480786 +0.611912 0
-0.234838 +0.298886 0
-0.259322 +0.330047 0
-0.311187 +0.396057 0
-0.173434 +0.220735 0
-0.275279 +0.350356 0
-0.500941 +0.637563 0
-0.319588 +0.406750 0
-0.508641 +0.647364 0
-0.521534 +0.663773 0
-0.582082 +0.740834 0
-0.327875 +0.417297 0
-0.375800 +0.478293 0
-0.236033 +0.300407 0
-0.140551 +0.178884 0
-0.258512 +0.329017 0
-0.276351 +0.351721 0
-0.191828 +0.244146 0
-0.072630 +0.092439 0
-0.068979 +0.087791 0
-0.118894 +0.151320 0
-0.200223 +0.254830 0
-0.326437 +0.415467 0
-0.332946 +0.423752 0
-0.190634 +0.242626 0
-0.112327 +0.142962 0
-0.251732 +0.320388 0
-0.127325 +0.162051 0
-0.458483 +0.583526 0
-0.381655 +0.485744 0
-0.469649 +0.597737 0
-0.343724 +0.437468 0
-0.252884 +0.321853 0
-0.117158 +0.149111 0
-0.207590 +0.264207 0
-0.088565 +0.112720 0
-0.380637 +0.484449 0
-0.248835 +0.316700 0
-0.238543 +0.303601 0
-0.135929 +0.173001 0
-0.162597 +0.206942 0
-0.297926 +0.379180 0
-0.136078 +0.173190 0
-0.322611 +0.410598 0
-0.369491 +0.470264 0
-0.498886 +0.634949 0
-0.420820 +0.535592 0
-0.475822 +0.605594 0
-0.559859 +0.712550 0
-0.551958 +0.702494 0
-0.492653 +0.627016 0
-0.568527 +0.723583 0
-0.496617 +0.632061 0
-0.507232 +0.645571 0
-0.568325 +0.723325 0
-0.494046 +0.628788 0
-0.456355 +0.580818 0
-0.353356 +0.449727 0
-0.401019 +0.510390 0
-0.363016 +0.462022 0
-0.249885 +0.318036 0
-0.283967 +0.361414 0
-0.068485 +0.087164 0
-0.222336 +0.282974 0
-0.062382 +0.079396 0
-0.108252 +0.137776 0
-0.193315 +0.246038 0
-0.355844 +0.452894 0
-0.263837 +0.335794 0
-0.406133 +0.516899 0
-0.133001 +0.169275 0
-0.129825 +0.165232 0
-0.274957 +0.349947 0
-0.370661 +0.471753 0
-0.230229 +0.293020 0
-0.268701 +0.341984 0
-0.099869 +0.127107 0
-0.149164 +0.189846 0
+0.000001 -0.000001 0
+0.000004 -0.000006 0
+0.000005 -0.000006 0
+0.000007 -0.000009 0
+0.068898 -0.087689 0
-0.068899 +0.087690 0
-0.000001 +0.000002 0
-0.024000 +0.030545 0
-0.067215 +0.085546 0
-0.092028 +0.117128 0
+0.067222 -0.085556 0
+0.000004 -0.000005 0
+0.067219 -0.085552 0
+0.024006 -0.030553 0
+0.092031 -0.117131 0
-0.023996 +0.030541 0
+0.024009 -0.030557 0
+0.000005 -0.000006 0
+0.068907 -0.087701 0
+0.092037 -0.117139 0
-0.067210 +0.085541 0
+0.000005 -0.000006 0
-0.068890 +0.087678 0
-0.092021 +0.117118 0
+0.000009 -0.000012 0
+0.048884 -0.062216 0
-0.048889 +0.062222 0
+0.117175 -0.149132 0
+0.039735 -0.050573 0
+0.029340 -0.037341 0
-0.029339 +0.037340 0
-0.039739 +0.050577 0
-0.117183 +0.149142 0
-0.086515 +0.110110 0
-0.139294 +0.177285 0
-0.017986 +0.022891 0
-0.053064 +0.067537 0
-0.017876 +0.022752 0
-0.028801 +0.036656 0
-0.085447 +0.108751 0
-0.113541 +0.144507 0
-0.038267 +0.048704 0
-0.045842 +0.058344 0
+0.028810 -0.036667 0
+0.038274 -0.048713 0
+0.113548 -0.144516 0
+0.045848 -0.058352 0
+0.139293 -0.177283 0
+0.086514 -0.110109 0
+0.113543 -0.144510 0
+0.085451 -0.108756 0
+0.028808 -0.036665 0
+0.017884 -0.022761 0
+0.053069 -0.067542 0
+0.017990 -0.022896 0
+0.006072 -0.007728 0
-0.006064 +0.007718 0
-0.017874 +0.022749 0
-0.006062 +0.007715 0
-0.017980 +0.022884 0
+0.017995 -0.022902 0
+0.006073 -0.007730 0
+0.017885 -0.022763 0
+0.053073 -0.067548 0
+0.085455 -0.108762 0
+0.029347 -0.037351 0
+0.086521 -0.110118 0
+0.117185 -0.149145 0
+0.139300 -0.177292 0
+0.045847 -0.058351 0
+0.038274 -0.048712 0
-0.045839 +0.058341 0
-0.113535 +0.144499 0
-0.038265 +0.048701 0
-0.028799 +0.036653 0
-0.085441 +0.108744 0
-0.053059 +0.067530 0
-0.139286 +0.177273 0
-0.117172 +0.149129 0
-0.086507 +0.110100 0
-0.029331 +0.037330 0
-0.039729 +0.050564 0
+0.039745 -0.050585 0
-0.048878 +0.062208 0
+0.048894 -0.062230 0
