# vtk DataFile Version 2.0
MyTitle
ASCII
DATASET UNSTRUCTURED_GRID
POINTS 565 double
0.400000 0.000000 0.000000
0.000000 0.400000 0.000000
-0.400000 0.000000 0.000000
0.000000 -0.400000 0.000000
0.000000 -1.500000 0.000000
1.000000 0.000000 0.000000
0.000000 1.500000 0.000000
-1.000000 0.000000 0.000000
0.333333 0.066667 0.000000
0.266667 0.133333 0.000000
0.200000 0.200000 0.000000
0.133333 0.266667 0.000000
0.066667 0.333333 0.000000
0.366667 0.033333 0.000000
0.300000 0.100000 0.000000
0.233333 0.166667 0.000000
0.166667 0.233333 0.000000
0.100000 0.300000 0.000000
0.033333 0.366667 0.000000
-0.066667 0.333333 0.000000
-0.133333 0.266667 0.000000
-0.200000 0.200000 0.000000
-0.266667 0.133333 0.000000
-0.333333 0.066667 0.000000
-0.033333 0.366667 0.000000
-0.100000 0.300000 0.000000
-0.166667 0.233333 0.000000
-0.233333 0.166667 0.000000
-0.300000 0.100000 0.000000
-0.366667 0.033333 0.000000
-0.333333 -0.066667 0.000000
-0.266667 -0.133333 0.000000
-0.200000 -0.200000 0.000000
-0.133333 -0.266667 0.000000
-0.066667 -0.333333 0.000000
-0.366667 -0.033333 0.000000
-0.300000 -0.100000 0.000000
-0.233333 -0.166667 0.000000
-0.166667 -0.233333 0.000000
-0.100000 -0.300000 0.000000
-0.033333 -0.366667 0.000000
0.066667 -0.333333 0.000000
0.133333 -0.266667 0.000000
0.200000 -0.200000 0.000000
0.266667 -0.133333 0.000000
0.333333 -0.066667 0.000000
0.033333 -0.366667 0.000000
0.100000 -0.300000 0.000000
0.166667 -0.233333 0.000000
0.233333 -0.166667 0.000000
0.300000 -0.100000 0.000000
0.366667 -0.033333 0.000000
0.318109 -1.422081 0.000000
0.579456 -1.222505 0.000000
0.771420 -0.954490 0.000000
0.900932 -0.650940 0.000000
0.975602 -0.329323 0.000000
0.163611 -1.479787 0.000000
0.457521 -1.333798 0.000000
0.683799 -1.094506 0.000000
0.843445 -0.805823 0.000000
0.944761 -0.491642 0.000000
0.993923 -0.165116 0.000000
0.975602 0.329323 0.000000
0.900932 0.650940 0.000000
0.771420 0.954490 0.000000
0.579456 1.222505 0.000000
0.318109 1.422081 0.000000
0.993923 0.165116 0.000000
0.944761 0.491642 0.000000
0.843445 0.805823 0.000000
0.683799 1.094506 0.000000
0.457521 1.333798 0.000000
0.163611 1.479787 0.000000
-0.318109 1.422081 0.000000
-0.579456 1.222505 0.000000
-0.771420 0.954490 0.000000
-0.900932 0.650940 0.000000
-0.975602 0.329323 0.000000
-0.163611 1.479787 0.000000
-0.457521 1.333798 0.000000
-0.683799 1.094506 0.000000
-0.843445 0.805823 0.000000
-0.944761 0.491642 0.000000
-0.993923 0.165116 0.000000
-0.975602 -0.329323 0.000000
-0.900932 -0.650940 0.000000
-0.771420 -0.954490 0.000000
-0.579456 -1.222505 0.000000
-0.318109 -1.422081 0.000000
-0.993923 -0.165116 0.000000
-0.944761 -0.491642 0.000000
-0.843445 -0.805823 0.000000
-0.683799 -1.094506 0.000000
-0.457521 -1.333798 0.000000
-0.163611 -1.479787 0.000000
0.000000 -1.316667 0.000000
0.000000 -1.133333 0.000000
0.000000 -0.950000 0.000000
0.000000 -0.766667 0.000000
0.000000 -0.583333 0.000000
0.000000 -1.408333 0.000000
0.000000 -1.225000 0.000000
0.000000 -1.041667 0.000000
0.000000 -0.858333 0.000000
0.000000 -0.675000 0.000000
0.000000 -0.491667 0.000000
0.900000 0.000000 0.000000
0.800000 0.000000 0.000000
0.700000 0.000000 0.000000
0.600000 0.000000 0.000000
0.500000 0.000000 0.000000
0.950000 0.000000 0.000000
0.850000 0.000000 0.000000
0.750000 0.000000 0.000000
0.650000 0.000000 0.000000
0.550000 0.000000 0.000000
0.450000 0.000000 0.000000
0.000000 1.316667 0.000000
0.000000 1.133333 0.000000
0.000000 0.950000 0.000000
0.000000 0.766667 0.000000
0.000000 0.583333 0.000000
0.000000 1.408333 0.000000
0.000000 1.225000 0.000000
0.000000 1.041667 0.000000
0.000000 0.858333 0.000000
0.000000 0.675000 0.000000
0.000000 0.491667 0.000000
-0.900000 0.000000 0.000000
-0.800000 0.000000 0.000000
-0.700000 0.000000 0.000000
-0.600000 0.000000 0.000000
-0.500000 0.000000 0.000000
-0.950000 0.000000 0.000000
-0.850000 0.000000 0.000000
-0.750000 0.000000 0.000000
-0.650000 0.000000 0.000000
-0.550000 0.000000 0.000000
-0.450000 0.000000 0.000000
0.395719 -0.864575 0.000000
0.259395 -0.559861 0.000000
0.669282 -0.470468 0.000000
0.468822 -0.302562 0.000000
0.470294 -1.024958 0.000000
0.204156 -1.007017 0.000000
0.247763 -1.189717 0.000000
0.323269 -0.707398 0.000000
0.131880 -0.665738 0.000000
0.165412 -0.833111 0.000000
0.195001 -0.411834 0.000000
0.098639 -0.498826 0.000000
0.795221 -0.564672 0.000000
0.555245 -0.685751 0.000000
0.645327 -0.806816 0.000000
0.568795 -0.386755 0.000000
0.380065 -0.445574 0.000000
0.456725 -0.556587 0.000000
0.363238 -0.216050 0.000000
0.285916 -0.319579 0.000000
0.741626 -0.237527 0.000000
0.860178 -0.284263 0.000000
0.534262 -0.151178 0.000000
0.635836 -0.193746 0.000000
0.433160 -0.108667 0.000000
0.282936 -1.305899 0.000000
0.123881 -1.253192 0.000000
0.524875 -1.123732 0.000000
0.359028 -1.107338 0.000000
0.433006 -0.944767 0.000000
0.299938 -0.935796 0.000000
0.225960 -1.098367 0.000000
0.102078 -1.070175 0.000000
0.184784 -0.920064 0.000000
0.082706 -0.891556 0.000000
0.359494 -0.785987 0.000000
0.244341 -0.770255 0.000000
0.291332 -0.633629 0.000000
0.195638 -0.612799 0.000000
0.148646 -0.749424 0.000000
0.065940 -0.716202 0.000000
0.115259 -0.582282 0.000000
0.049319 -0.541080 0.000000
0.227198 -0.485847 0.000000
0.146820 -0.455330 0.000000
0.164167 -0.339250 0.000000
0.082653 -0.416080 0.000000
0.708374 -0.880653 0.000000
0.557810 -0.915887 0.000000
0.848077 -0.607806 0.000000
0.720274 -0.685744 0.000000
0.732252 -0.517570 0.000000
0.612264 -0.578110 0.000000
0.600286 -0.746284 0.000000
0.475482 -0.775163 0.000000
0.505985 -0.621169 0.000000
0.389997 -0.631993 0.000000
0.619038 -0.428612 0.000000
0.512760 -0.471671 0.000000
0.518808 -0.344658 0.000000
0.424443 -0.374068 0.000000
0.418395 -0.501081 0.000000
0.319730 -0.502718 0.000000
0.332990 -0.382577 0.000000
0.240459 -0.365707 0.000000
0.416030 -0.259306 0.000000
0.324577 -0.267815 0.000000
0.314952 -0.174692 0.000000
0.242958 -0.259790 0.000000
0.917890 -0.306793 0.000000
0.827700 -0.424467 0.000000
0.880089 -0.142131 0.000000
0.770813 -0.118764 0.000000
0.800902 -0.260895 0.000000
0.705454 -0.353998 0.000000
0.688731 -0.215637 0.000000
0.602315 -0.290251 0.000000
0.667918 -0.096873 0.000000
0.567131 -0.075589 0.000000
0.585049 -0.172462 0.000000
0.501542 -0.226870 0.000000
0.483711 -0.129922 0.000000
0.398199 -0.162358 0.000000
0.466580 -0.054333 0.000000
0.383247 -0.087667 0.000000
0.689510 0.478404 0.000000
0.468822 0.302562 0.000000
0.396294 0.865300 0.000000
0.257800 0.558065 0.000000
0.795221 0.564672 0.000000
0.745015 0.238857 0.000000
0.860178 0.284263 0.000000
0.568839 0.386777 0.000000
0.534533 0.151292 0.000000
0.637973 0.194587 0.000000
0.363420 0.216203 0.000000
0.433226 0.108706 0.000000
0.468341 1.022695 0.000000
0.561146 0.691924 0.000000
0.647386 0.807913 0.000000
0.321648 0.705619 0.000000
0.370475 0.437175 0.000000
0.464928 0.564333 0.000000
0.194273 0.411098 0.000000
0.287201 0.320593 0.000000
0.201943 1.004577 0.000000
0.246678 1.188518 0.000000
0.130806 0.664551 0.000000
0.164251 0.831835 0.000000
0.098186 0.498329 0.000000
0.917890 0.306793 0.000000
0.880089 0.142131 0.000000
0.848077 0.607806 0.000000
0.827700 0.424467 0.000000
0.742366 0.521538 0.000000
0.717263 0.358630 0.000000
0.802597 0.261560 0.000000
0.772507 0.119428 0.000000
0.691494 0.216722 0.000000
0.668987 0.097293 0.000000
0.629175 0.432591 0.000000
0.603406 0.290682 0.000000
0.518830 0.344669 0.000000
0.501677 0.226927 0.000000
0.586253 0.172940 0.000000
0.567266 0.075646 0.000000
0.483880 0.129999 0.000000
0.466613 0.054353 0.000000
0.416121 0.259382 0.000000
0.398323 0.162455 0.000000
0.315043 0.174768 0.000000
0.383280 0.087686 0.000000
0.709403 0.881201 0.000000
0.721304 0.686292 0.000000
0.523898 1.122600 0.000000
0.557863 0.915304 0.000000
0.432317 0.943998 0.000000
0.478720 0.778612 0.000000
0.604266 0.749918 0.000000
0.625328 0.585164 0.000000
0.513037 0.628128 0.000000
0.516883 0.475555 0.000000
0.358971 0.785459 0.000000
0.393288 0.634976 0.000000
0.289724 0.631842 0.000000
0.314137 0.497620 0.000000
0.417701 0.500754 0.000000
0.419648 0.369868 0.000000
0.328838 0.378884 0.000000
0.325310 0.268398 0.000000
0.226036 0.484581 0.000000
0.240737 0.365845 0.000000
0.163803 0.338882 0.000000
0.243601 0.260297 0.000000
0.282394 1.305299 0.000000
0.357509 1.105607 0.000000
0.123339 1.252592 0.000000
0.100971 1.068955 0.000000
0.224311 1.096547 0.000000
0.299119 0.934939 0.000000
0.183097 0.918206 0.000000
0.242949 0.768727 0.000000
0.082126 0.890918 0.000000
0.065403 0.715609 0.000000
0.147529 0.748193 0.000000
0.194303 0.611308 0.000000
0.114496 0.581440 0.000000
0.146229 0.454713 0.000000
0.049093 0.540831 0.000000
0.082426 0.415831 0.000000
-0.390034 0.858069 0.000000
-0.258592 0.558961 0.000000
-0.689510 0.478404 0.000000
-0.468822 0.302562 0.000000
-0.467554 1.021673 0.000000
-0.203612 1.006383 0.000000
-0.246562 1.188338 0.000000
-0.321255 0.705049 0.000000
-0.131464 0.665265 0.000000
-0.164446 0.832004 0.000000
-0.194863 0.411679 0.000000
-0.098507 0.498678 0.000000
-0.795221 0.564672 0.000000
-0.560996 0.691029 0.000000
-0.646871 0.807178 0.000000
-0.568795 0.386755 0.000000
-0.380065 0.445574 0.000000
-0.458051 0.556986 0.000000
-0.363238 0.216050 0.000000
-0.285916 0.319579 0.000000
-0.745060 0.238879 0.000000
-0.860178 0.284263 0.000000
-0.534459 0.151255 0.000000
-0.637949 0.194576 0.000000
-0.433185 0.108677 0.000000
-0.282336 1.305210 0.000000
-0.123281 1.252502 0.000000
-0.523505 1.122089 0.000000
-0.357058 1.105006 0.000000
-0.428794 0.939871 0.000000
-0.296823 0.932226 0.000000
-0.225087 1.097361 0.000000
-0.101806 1.069858 0.000000
-0.184029 0.919194 0.000000
-0.082223 0.891002 0.000000
-0.355644 0.781559 0.000000
-0.242850 0.768527 0.000000
-0.289923 0.632005 0.000000
-0.195028 0.612113 0.000000
-0.147955 0.748634 0.000000
-0.065732 0.715966 0.000000
-0.114986 0.581972 0.000000
-0.049254 0.541006 0.000000
-0.226728 0.485320 0.000000
-0.146685 0.455179 0.000000
-0.164098 0.339173 0.000000
-0.082587 0.416006 0.000000
-0.709146 0.880834 0.000000
[...]
POINT_DATA 565
VECTORS sol double
+0.608507 +0.463656 0
+0.000064 +0.000049 0
-0.608546 -0.463685 0
+0.000016 +0.000012 0
+0.000000 +0.000000 0
+0.000000 +0.000000 0
+0.000000 +0.000000 0
+0.000000 +0.000000 0
+0.523482 +0.398871 0
+0.386991 +0.294871 0
+0.230887 +0.175926 0
+0.093024 +0.070880 0
+0.008275 +0.006305 0
+0.573824 +0.437229 0
+0.459723 +0.350289 0
+0.309005 +0.235448 0
+0.157533 +0.120034 0
+0.042434 +0.032333 0
-0.006246 -0.004759 0
-0.008148 -0.006208 0
-0.092923 -0.070803 0
-0.230806 -0.175864 0
-0.386942 -0.294833 0
-0.523477 -0.398867 0
+0.006376 +0.004859 0
-0.042314 -0.032242 0
-0.157421 -0.119948 0
-0.308938 -0.235398 0
-0.459692 -0.350265 0
-0.573842 -0.437243 0
-0.523497 -0.398882 0
-0.386979 -0.294861 0
-0.230848 -0.175896 0
-0.092963 -0.070834 0
-0.008199 -0.006247 0
-0.573851 -0.437250 0
-0.459724 -0.350290 0
-0.308979 -0.235429 0
-0.157482 -0.119995 0
-0.042364 -0.032280 0
+0.006326 +0.004820 0
+0.008236 +0.006276 0
+0.093009 +0.070869 0
+0.230876 +0.175917 0
+0.386983 +0.294864 0
+0.523480 +0.398869 0
-0.006292 -0.004794 0
+0.042403 +0.032309 0
+0.157500 +0.120008 0
+0.308996 +0.235441 0
+0.459716 +0.350284 0
+0.573825 +0.437230 0
+0.000000 +0.000000 0
+0.000000 +0.000000 0
+0.000000 +0.000000 0
+0.000000 +0.000000 0
+0.000000 +0.000000 0
+0.000000 +0.000000 0
+0.000000 +0.000000 0
+0.000000 +0.000000 0
+0.000000 +0.000000 0
+0.000000 +0.000000 0
+0.000000 +0.000000 0
+0.000000 +0.000000 0
+0.000000 +0.000000 0
+0.000000 +0.000000 0
+0.000000 +0.000000 0
+0.000000 +0.000000 0
+0.000000 +0.000000 0
+0.000000 +0.000000 0
+0.000000 +0.000000 0
+0.000000 +0.000000 0
+0.000000 +0.000000 0
+0.000000 +0.000000 0
+0.000000 +0.000000 0
+0.000000 +0.000000 0
+0.000000 +0.000000 0
+0.000000 +0.000000 0
+0.000000 +0.000000 0
+0.000000 +0.000000 0
+0.000000 +0.000000 0
+0.000000 +0.000000 0
+0.000000 +0.000000 0
+0.000000 +0.000000 0
+0.000000 +0.000000 0
+0.000000 +0.000000 0
+0.000000 +0.000000 0
+0.000000 +0.000000 0
+0.000000 +0.000000 0
+0.000000 +0.000000 0
+0.000000 +0.000000 0
+0.000000 +0.000000 0
+0.000000 +0.000000 0
+0.000000 +0.000000 0
+0.000000 +0.000000 0
+0.000000 +0.000000 0
+0.000031 +0.000023 0
+0.000075 +0.000058 0
+0.000015 +0.000011 0
+0.000038 +0.000029 0
+0.000021 +0.000016 0
+0.000005 +0.000004 0
+0.000006 +0.000005 0
+0.000068 +0.000052 0
+0.000043 +0.000033 0
+0.000041 +0.000031 0
+0.000020 +0.000016 0
+0.213874 +0.162963 0
+0.406368 +0.309635 0
+0.553630 +0.421842 0
+0.638767 +0.486713 0
+0.656083 +0.499907 0
+0.109167 +0.083181 0
+0.315994 +0.240774 0
+0.487910 +0.371766 0
+0.604904 +0.460910 0
+0.655760 +0.499661 0
+0.639417 +0.487208 0
-0.000024 -0.000018 0
-0.000057 -0.000043 0
+0.000054 +0.000041 0
+0.000010 +0.000007 0
+0.000038 +0.000029 0
-0.000016 -0.000013 0
+0.000018 +0.000014 0
-0.000046 -0.000035 0
+0.000016 +0.000012 0
+0.000016 +0.000012 0
+0.000050 +0.000038 0
-0.213907 -0.162988 0
-0.406491 -0.309729 0
-0.553760 -0.421941 0
-0.638860 -0.486784 0
-0.656161 -0.499966 0
-0.109191 -0.083199 0
-0.316126 -0.240875 0
-0.487945 -0.371793 0
-0.605032 -0.461008 0
-0.655851 -0.499730 0
-0.639476 -0.487253 0
-0.774175 -0.589887 0
-0.416017 -0.316987 0
-0.124384 -0.094776 0
+0.202206 +0.154072 0
-0.551235 -0.420017 0
-0.503308 -0.383499 0
-0.336980 -0.256764 0
-0.692291 -0.527496 0
-0.336121 -0.256110 0
-0.486593 -0.370763 0
-0.102092 -0.077790 0
-0.136795 -0.104232 0
-0.127634 -0.097252 0
-0.590341 -0.449814 0
-0.460733 -0.351058 0
+0.014835 +0.011304 0
-0.205286 -0.156419 0
-0.462357 -0.352296 0
+0.350326 +0.266933 0
+0.086148 +0.065641 0
+0.303813 +0.231492 0
+0.138149 +0.105264 0
+0.537076 +0.409229 0
+0.443199 +0.337699 0
+0.567363 +0.432306 0
-0.170995 -0.130290 0
-0.156815 -0.119486 0
-0.289426 -0.220530 0
-0.494044 -0.376440 0
-0.699992 -0.533364 0
-0.693464 -0.528389 0
-0.440644 -0.335752 0
-0.246819 -0.188065 0
-0.518191 -0.394839 0
-0.255560 -0.194726 0
-0.770361 -0.586982 0
-0.638671 -0.486639 0
-0.569812 -0.434172 0
-0.412377 -0.314213 0
-0.425279 -0.324044 0
-0.190435 -0.145103 0
-0.236306 -0.180055 0
-0.088257 -0.067248 0
-0.252630 -0.192493 0
-0.140077 -0.106733 0
+0.016078 +0.012250 0
-0.052817 -0.040244 0
-0.255812 -0.194918 0
-0.564715 -0.430288 0
-0.079419 -0.060514 0
-0.309013 -0.235455 0
-0.148613 -0.113237 0
-0.375878 -0.286402 0
-0.557830 -0.425042 0
-0.738914 -0.563021 0
-0.558370 -0.425453 0
-0.621106 -0.473255 0
-0.065027 -0.049547 0
-0.231419 -0.176331 0
+0.108294 +0.082516 0
-0.003772 -0.002874 0
-0.342367 -0.260868 0
-0.338778 -0.258134 0
-0.049204 -0.037492 0
-0.021221 -0.016170 0
+0.287393 +0.218981 0
+0.218059 +0.166151 0
+0.383746 +0.292398 0
+0.180308 +0.137387 0
+0.064679 +0.049283 0
+0.014282 +0.010882 0
+0.216321 +0.164827 0
+0.408454 +0.311224 0
+0.221740 +0.168956 0
+0.117297 +0.089375 0
+0.377805 +0.287871 0
+0.257886 +0.196498 0
+0.546120 +0.416119 0
+0.621715 +0.473720 0
+0.497325 +0.378940 0
+0.392145 +0.298797 0
+0.561107 +0.427539 0
+0.470656 +0.358619 0
+0.630331 +0.480285 0
+0.554267 +0.422327 0
-0.123808 -0.094336 0
+0.202112 +0.154001 0
-0.773861 -0.589648 0
-0.411304 -0.313396 0
-0.127831 -0.097402 0
+0.299043 +0.227858 0
+0.138295 +0.105375 0
+0.014413 +0.010982 0
+0.536928 +0.409116 0
+0.440635 +0.335745 0
+0.350192 +0.266831 0
+0.567341 +0.432290 0
-0.557315 -0.424650 0
-0.588208 -0.448189 0
-0.455663 -0.347195 0
-0.689167 -0.525116 0
-0.184446 -0.140540 0
-0.475340 -0.362188 0
-0.100523 -0.076594 0
+0.084445 +0.064344 0
-0.501344 -0.382002 0
-0.338082 -0.257604 0
-0.332831 -0.253603 0
-0.483720 -0.368574 0
-0.135755 -0.103440 0
+0.064742 +0.049331 0
+0.216273 +0.164790 0
-0.079519 -0.060590 0
+0.014284 +0.010883 0
-0.143975 -0.109703 0
+0.108117 +0.082381 0
+0.218916 +0.166805 0
+0.405520 +0.308989 0
+0.374647 +0.285464 0
+0.544794 +0.415109 0
-0.068758 -0.052390 0
+0.257023 +0.195840 0
+0.108310 +0.082528 0
+0.391979 +0.298671 0
+0.496119 +0.378021 0
+0.621632 +0.473656 0
+0.561057 +0.427501 0
+0.630331 +0.480285 0
+0.287194 +0.218829 0
+0.470591 +0.358570 0
+0.383725 +0.292382 0
+0.554275 +0.422334 0
-0.252631 -0.192494 0
-0.307049 -0.233958 0
-0.293333 -0.223507 0
-0.565258 -0.430702 0
-0.701380 -0.534421 0
-0.737016 -0.561574 0
-0.551096 -0.419911 0
-0.371095 -0.282758 0
-0.564099 -0.429819 0
-0.239020 -0.182123 0
-0.769840 -0.586585 0
-0.626330 -0.477236 0
-0.565580 -0.430947 0
-0.325245 -0.247822 0
-0.341480 -0.260193 0
+0.006057 +0.004615 0
-0.040762 -0.031059 0
+0.217229 +0.165519 0
-0.249421 -0.190048 0
-0.021486 -0.016371 0
+0.016581 +0.012634 0
+0.179898 +0.137074 0
-0.171983 -0.131043 0
-0.497363 -0.378969 0
-0.156716 -0.119411 0
-0.245050 -0.186717 0
-0.440905 -0.335950 0
-0.693328 -0.528286 0
-0.515161 -0.392530 0
-0.635573 -0.484279 0
-0.253928 -0.193482 0
-0.188795 -0.143853 0
-0.422000 -0.321546 0
-0.408354 -0.311148 0
-0.234152 -0.178414 0
-0.138753 -0.105724 0
-0.087739 -0.066853 0
-0.052449 -0.039964 0
+0.776877 +0.591946 0
+0.413663 +0.315193 0
+0.123832 +0.094354 0
-0.202253 -0.154108 0
+0.559901 +0.426620 0
+0.502931 +0.383211 0
+0.338209 +0.257700 0
+0.688269 +0.524431 0
+0.334875 +0.255160 0
+0.484097 +0.368861 0
+0.101839 +0.077597 0
+0.136562 +0.104054 0
+0.127788 +0.097369 0
+0.587586 +0.447715 0
+0.457092 +0.348284 0
-0.014530 -0.011071 0
+0.205309 +0.156436 0
+0.462429 +0.352351 0
-0.350311 -0.266922 0
-0.086106 -0.065609 0
-0.299062 -0.227873 0
-0.138349 -0.105416 0
-0.537042 -0.409203 0
-0.440729 -0.335816 0
-0.567397 -0.432332 0
+0.172099 +0.131132 0
+0.156714 +0.119409 0
+0.295010 +0.224785 0
+0.498440 +0.379790 0
+0.707951 +0.539428 0
+0.693094 +0.528108 0
+0.440777 +0.335853 0
+0.246386 +0.187736 0
+0.516952 +0.393895 0
+0.254229 +0.193711 0
+0.767035 +0.584447 0
+0.635335 +0.484098 0
+0.565999 +0.431267 0
+0.410562 +0.312830 0
+0.423250 +0.322498 0
+0.189831 +0.144643 0
+0.235584 +0.179505 0
+0.088177 +0.067187 0
+0.251349 +0.191517 0
+0.139833 +0.106547 0
-0.016104 -0.012270 0
+0.052798 +0.040230 0
+0.253662 +0.193280 0
+0.567408 +0.432341 0
+0.079491 +0.060569 0
+0.307421 +0.234241 0
+0.143959 +0.109690 0
+0.370431 +0.282252 0
+0.551482 +0.420205 0
+0.738647 +0.562817 0
+0.560386 +0.426990 0
+0.619395 +0.471952 0
+0.068562 +0.052242 0
+0.231594 +0.176465 0
-0.108187 -0.082434 0
+0.003789 +0.002887 0
+0.342651 +0.261085 0
+0.337607 +0.257242 0
+0.049230 +0.037511 0
+0.021125 +0.016097 0
-0.287406 -0.218991 0
-0.218033 -0.166131 0
-0.383720 -0.292378 0
-0.180252 -0.137344 0
-0.064767 -0.049349 0
-0.014314 -0.010907 0
-0.216329 -0.164834 0
-0.405567 -0.309024 0
-0.218941 -0.166823 0
-0.108166 -0.082418 0
-0.374708 -0.285512 0
-0.257113 -0.195909 0
-0.544917 -0.415203 0
-0.621740 -0.473739 0
-0.496278 -0.378142 0
-0.392100 -0.298763 0
-0.561137 -0.427562 0
-0.470671 -0.358631 0
-0.630391 -0.480331 0
-0.554288 -0.422343 0
+0.123710 +0.094261 0
-0.202209 -0.154074 0
+0.773863 +0.589650 0
+0.411310 +0.313400 0
+0.127779 +0.097362 0
-0.299159 -0.227946 0
-0.138363 -0.105427 0
-0.014532 -0.011072 0
-0.537042 -0.409203 0
-0.440755 -0.335836 0
-0.350239 -0.266867 0
-0.567411 -0.432343 0
+0.557321 +0.424654 0
+0.588152 +0.448146 0
+0.455631 +0.347171 0
+0.689167 +0.525115 0
+0.184396 +0.140502 0
+0.475274 +0.362138 0
+0.100552 +0.076617 0
-0.084457 -0.064353 0
+0.501379 +0.382029 0
+0.338106 +0.257622 0
+0.332878 +0.253639 0
+0.483765 +0.368608 0
+0.135812 +0.103483 0
-0.064775 -0.049356 0
-0.216340 -0.164841 0
+0.079493 +0.060570 0
-0.014349 -0.010933 0
+0.143895 +0.109641 0
-0.108228 -0.082465 0
-0.219000 -0.166868 0
-0.405627 -0.309070 0
-0.374792 -0.285575 0
-0.544925 -0.415209 0
+0.068649 +0.052308 0
-0.257150 -0.195937 0
-0.108422 -0.082613 0
-0.392086 -0.298752 0
-0.496237 -0.378111 0
-0.621741 -0.473740 0
-0.561150 -0.427572 0
-0.630407 -0.480343 0
-0.287268 -0.218886 0
-0.470651 -0.358615 0
-0.383743 -0.292395 0
-0.554318 -0.422367 0
+0.252617 +0.192483 0
+0.307002 +0.233922 0
+0.293337 +0.223510 0
+0.565245 +0.430692 0
+0.701385 +0.534425 0
+0.736989 +0.561553 0
+0.551052 +0.419878 0
+0.371013 +0.282696 0
+0.564034 +0.429770 0
+0.238925 +0.182051 0
+0.769839 +0.586584 0
+0.626297 +0.477211 0
+0.565580 +0.430948 0
+0.325224 +0.247806 0
+0.341418 +0.260146 0
-0.006132 -0.004673 0
+0.040728 +0.031033 0
-0.217259 -0.165542 0
+0.249436 +0.190060 0
+0.021495 +0.016378 0
-0.016536 -0.012600 0
-0.179885 -0.137064 0
+0.171997 +0.131054 0
+0.497382 +0.378983 0
+0.156737 +0.119427 0
+0.245085 +0.186744 0
+0.440933 +0.335972 0
+0.693354 +0.528305 0
+0.515208 +0.392566 0
+0.635599 +0.484299 0
+0.253987 +0.193527 0
+0.188847 +0.143894 0
+0.422045 +0.321580 0
+0.408385 +0.311171 0
+0.234202 +0.178451 0
+0.138799 +0.105759 0
+0.087800 +0.066899 0
+0.052515 +0.040014 0
+0.000038 +0.000029 0
-0.247209 -0.188362 0
+0.247291 +0.188425 0
+0.000063 +0.000048 0
+0.079454 +0.060540 0
-0.079399 -0.060499 0
+0.000025 +0.000019 0
-0.120251 -0.091626 0
-0.345399 -0.263179 0
-0.205962 -0.156934 0
-0.345380 -0.263165 0
-0.461182 -0.351400 0
+0.345444 +0.263213 0
+0.120335 +0.091690 0
+0.206015 +0.156975 0
+0.120346 +0.091699 0
-0.120236 -0.091615 0
+0.000052 +0.000039 0
-0.079357 -0.060466 0
-0.205928 -0.156908 0
+0.345451 +0.263218 0
+0.461209 +0.351422 0
+0.079486 +0.060565 0
+0.206035 +0.156990 0
+0.000068 +0.000052 0
+0.013905 +0.010595 0
-0.013861 -0.010561 0
+0.095397 +0.072688 0
+0.031973 +0.024362 0
+0.046695 +0.035580 0
-0.046630 -0.035530 0
-0.031919 -0.024321 0
-0.095348 -0.072651 0
-0.138725 -0.105702 0
-0.227081 -0.173026 0
-0.057011 -0.043440 0
-0.169346 -0.129034 0
-0.185180 -0.141099 0
-0.301891 -0.230028 0
-0.276401 -0.210605 0
-0.374500 -0.285353 0
-0.408389 -0.311175 0
-0.500486 -0.381348 0
-0.301882 -0.230021 0
-0.408380 -0.311168 0
-0.374473 -0.285332 0
-0.500476 -0.381341 0
+0.227122 +0.173057 0
+0.138783 +0.105747 0
+0.374525 +0.285372 0
+0.276451 +0.210644 0
+0.301956 +0.230077 0
+0.185264 +0.141163 0
+0.169416 +0.129087 0
+0.057091 +0.043501 0
+0.062460 +0.047592 0
-0.062365 -0.047519 0
+0.185270 +0.141168 0
+0.062466 +0.047596 0
+0.057110 +0.043515 0
-0.056990 -0.043424 0
-0.062358 -0.047514 0
-0.185172 -0.141093 0
-0.169321 -0.129016 0
-0.276374 -0.210585 0
-0.046596 -0.035504 0
-0.138689 -0.105675 0
-0.095305 -0.072618 0
-0.227043 -0.172997 0
+0.500491 +0.381352 0
+0.408426 +0.311203 0
+0.500493 +0.381354 0
+0.374533 +0.285378 0
+0.408429 +0.311205 0
+0.301960 +0.230080 0
+0.276463 +0.210653 0
+0.169431 +0.129099 0
+0.227138 +0.173069 0
+0.095423 +0.072708 0
+0.138805 +0.105764 0
+0.046725 +0.035603 0
+0.032010 +0.024390 0
-0.031877 -0.024289 0
+0.013946 +0.010626 0
-0.013814 -0.010525 0
