# vtk DataFile Version 2.0
MyTitle
ASCII
DATASET UNSTRUCTURED_GRID
POINTS 565 double
0.400000 0.000000 0.000000
0.000000 0.400000 0.000000
-0.400000 0.000000 0.000000
0.000000 -0.400000 0.000000
0.000000 -1.500000 0.000000
1.000000 0.000000 0.000000
0.000000 1.500000 0.000000
-1.000000 0.000000 0.000000
0.333333 0.066667 0.000000
0.266667 0.133333 0.000000
0.200000 0.200000 0.000000
0.133333 0.266667 0.000000
0.066667 0.333333 0.000000
0.366667 0.033333 0.000000
0.300000 0.100000 0.000000
0.233333 0.166667 0.000000
0.166667 0.233333 0.000000
0.100000 0.300000 0.000000
0.033333 0.366667 0.000000
-0.066667 0.333333 0.000000
-0.133333 0.266667 0.000000
-0.200000 0.200000 0.000000
-0.266667 0.133333 0.000000
-0.333333 0.066667 0.000000
-0.033333 0.366667 0.000000
-0.100000 0.300000 0.000000
-0.166667 0.233333 0.000000
-0.233333 0.166667 0.000000
-0.300000 0.100000 0.000000
-0.366667 0.033333 0.000000
-0.333333 -0.066667 0.000000
-0.266667 -0.133333 0.000000
-0.200000 -0.200000 0.000000
-0.133333 -0.266667 0.000000
-0.066667 -0.333333 0.000000
-0.366667 -0.033333 0.000000
-0.300000 -0.100000 0.000000
-0.233333 -0.166667 0.000000
-0.166667 -0.233333 0.000000
-0.100000 -0.300000 0.000000
-0.033333 -0.366667 0.000000
0.066667 -0.333333 0.000000
0.133333 -0.266667 0.000000
0.200000 -0.200000 0.000000
0.266667 -0.133333 0.000000
0.333333 -0.066667 0.000000
0.033333 -0.366667 0.000000
0.100000 -0.300000 0.000000
0.166667 -0.233333 0.000000
0.233333 -0.166667 0.000000
0.300000 -0.100000 0.000000
0.366667 -0.033333 0.000000
0.318109 -1.422081 0.000000
0.579456 -1.222505 0.000000
0.771420 -0.954490 0.000000
0.900932 -0.650940 0.000000
0.975602 -0.329323 0.000000
0.163611 -1.479787 0.000000
0.457521 -1.333798 0.000000
0.683799 -1.094506 0.000000
0.843445 -0.805823 0.000000
0.944761 -0.491642 0.000000
0.993923 -0.165116 0.000000
0.975602 0.329323 0.000000
0.900932 0.650940 0.000000
0.771420 0.954490 0.000000
0.579456 1.222505 0.000000
0.318109 1.422081 0.000000
0.993923 0.165116 0.000000
0.944761 0.491642 0.000000
0.843445 0.805823 0.000000
0.683799 1.094506 0.000000
0.457521 1.333798 0.000000
0.163611 1.479787 0.000000
-0.318109 1.422081 0.000000
-0.579456 1.222505 0.000000
-0.771420 0.954490 0.000000
-0.900932 0.650940 0.000000
-0.975602 0.329323 0.000000
-0.163611 1.479787 0.000000
-0.457521 1.333798 0.000000
-0.683799 1.094506 0.000000
-0.843445 0.805823 0.000000
-0.944761 0.491642 0.000000
-0.993923 0.165116 0.000000
-0.975602 -0.329323 0.000000
-0.900932 -0.650940 0.000000
-0.771420 -0.954490 0.000000
-0.579456 -1.222505 0.000000
-0.318109 -1.422081 0.000000
-0.993923 -0.165116 0.000000
-0.944761 -0.491642 0.000000
-0.843445 -0.805823 0.000000
-0.683799 -1.094506 0.000000
-0.457521 -1.333798 0.000000
-0.163611 -1.479787 0.000000
0.000000 -1.316667 0.000000
0.000000 -1.133333 0.000000
0.000000 -0.950000 0.000000
0.000000 -0.766667 0.000000
0.000000 -0.583333 0.000000
0.000000 -1.408333 0.000000
0.000000 -1.225000 0.000000
0.000000 -1.041667 0.000000
0.000000 -0.858333 0.000000
0.000000 -0.675000 0.000000
0.000000 -0.491667 0.000000
0.900000 0.000000 0.000000
0.800000 0.000000 0.000000
0.700000 0.000000 0.000000
0.600000 0.000000 0.000000
0.500000 0.000000 0.000000
0.950000 0.000000 0.000000
0.850000 0.000000 0.000000
0.750000 0.000000 0.000000
0.650000 0.000000 0.000000
0.550000 0.000000 0.000000
0.450000 0.000000 0.000000
0.000000 1.316667 0.000000
0.000000 1.133333 0.000000
0.000000 0.950000 0.000000
0.000000 0.766667 0.000000
0.000000 0.583333 0.000000
0.000000 1.408333 0.000000
0.000000 1.225000 0.000000
0.000000 1.041667 0.000000
0.000000 0.858333 0.000000
0.000000 0.675000 0.000000
0.000000 0.491667 0.000000
-0.900000 0.000000 0.000000
-0.800000 0.000000 0.000000
-0.700000 0.000000 0.000000
-0.600000 0.000000 0.000000
-0.500000 0.000000 0.000000
-0.950000 0.000000 0.000000
-0.850000 0.000000 0.000000
-0.750000 0.000000 0.000000
-0.650000 0.000000 0.000000
-0.550000 0.000000 0.000000
-0.450000 0.000000 0.000000
0.395719 -0.864575 0.000000
0.259395 -0.559861 0.000000
0.669282 -0.470468 0.000000
0.468822 -0.302562 0.000000
0.470294 -1.024958 0.000000
0.204156 -1.007017 0.000000
0.247763 -1.189717 0.000000
0.323269 -0.707398 0.000000
0.131880 -0.665738 0.000000
0.165412 -0.833111 0.000000
0.195001 -0.411834 0.000000
0.098639 -0.498826 0.000000
0.795221 -0.564672 0.000000
0.555245 -0.685751 0.000000
0.645327 -0.806816 0.000000
0.568795 -0.386755 0.000000
0.380065 -0.445574 0.000000
0.456725 -0.556587 0.000000
0.363238 -0.216050 0.000000
0.285916 -0.319579 0.000000
0.741626 -0.237527 0.000000
0.860178 -0.284263 0.000000
0.534262 -0.151178 0.000000
0.635836 -0.193746 0.000000
0.433160 -0.108667 0.000000
0.282936 -1.305899 0.000000
0.123881 -1.253192 0.000000
0.524875 -1.123732 0.000000
0.359028 -1.107338 0.000000
0.433006 -0.944767 0.000000
0.299938 -0.935796 0.000000
0.225960 -1.098367 0.000000
0.102078 -1.070175 0.000000
0.184784 -0.920064 0.000000
0.082706 -0.891556 0.000000
0.359494 -0.785987 0.000000
0.244341 -0.770255 0.000000
0.291332 -0.633629 0.000000
0.195638 -0.612799 0.000000
0.148646 -0.749424 0.000000
0.065940 -0.716202 0.000000
0.115259 -0.582282 0.000000
0.049319 -0.541080 0.000000
0.227198 -0.485847 0.000000
0.146820 -0.455330 0.000000
0.164167 -0.339250 0.000000
0.082653 -0.416080 0.000000
0.708374 -0.880653 0.000000
0.557810 -0.915887 0.000000
0.848077 -0.607806 0.000000
0.720274 -0.685744 0.000000
0.732252 -0.517570 0.000000
0.612264 -0.578110 0.000000
0.600286 -0.746284 0.000000
0.475482 -0.775163 0.000000
0.505985 -0.621169 0.000000
0.389997 -0.631993 0.000000
0.619038 -0.428612 0.000000
0.512760 -0.471671 0.000000
0.518808 -0.344658 0.000000
0.424443 -0.374068 0.000000
0.418395 -0.501081 0.000000
0.319730 -0.502718 0.000000
0.332990 -0.382577 0.000000
0.240459 -0.365707 0.000000
0.416030 -0.259306 0.000000
0.324577 -0.267815 0.000000
0.314952 -0.174692 0.000000
0.242958 -0.259790 0.000000
0.917890 -0.306793 0.000000
0.827700 -0.424467 0.000000
0.880089 -0.142131 0.000000
0.770813 -0.118764 0.000000
0.800902 -0.260895 0.000000
0.705454 -0.353998 0.000000
0.688731 -0.215637 0.000000
0.602315 -0.290251 0.000000
0.667918 -0.096873 0.000000
0.567131 -0.075589 0.000000
0.585049 -0.172462 0.000000
0.501542 -0.226870 0.000000
0.483711 -0.129922 0.000000
0.398199 -0.162358 0.000000
0.466580 -0.054333 0.000000
0.383247 -0.087667 0.000000
0.689510 0.478404 0.000000
0.468822 0.302562 0.000000
0.396294 0.865300 0.000000
0.257800 0.558065 0.000000
0.795221 0.564672 0.000000
0.745015 0.238857 0.000000
0.860178 0.284263 0.000000
0.568839 0.386777 0.000000
0.534533 0.151292 0.000000
0.637973 0.194587 0.000000
0.363420 0.216203 0.000000
0.433226 0.108706 0.000000
0.468341 1.022695 0.000000
0.561146 0.691924 0.000000
0.647386 0.807913 0.000000
0.321648 0.705619 0.000000
0.370475 0.437175 0.000000
0.464928 0.564333 0.000000
0.194273 0.411098 0.000000
0.287201 0.320593 0.000000
0.201943 1.004577 0.000000
0.246678 1.188518 0.000000
0.130806 0.664551 0.000000
0.164251 0.831835 0.000000
0.098186 0.498329 0.000000
0.917890 0.306793 0.000000
0.880089 0.142131 0.000000
0.848077 0.607806 0.000000
0.827700 0.424467 0.000000
0.742366 0.521538 0.000000
0.717263 0.358630 0.000000
0.802597 0.261560 0.000000
0.772507 0.119428 0.000000
0.691494 0.216722 0.000000
0.668987 0.097293 0.000000
0.629175 0.432591 0.000000
0.603406 0.290682 0.000000
0.518830 0.344669 0.000000
0.501677 0.226927 0.000000
0.586253 0.172940 0.000000
0.567266 0.075646 0.000000
0.483880 0.129999 0.000000
0.466613 0.054353 0.000000
0.416121 0.259382 0.000000
0.398323 0.162455 0.000000
0.315043 0.174768 0.000000
0.383280 0.087686 0.000000
0.709403 0.881201 0.000000
0.721304 0.686292 0.000000
0.523898 1.122600 0.000000
0.557863 0.915304 0.000000
0.432317 0.943998 0.000000
0.478720 0.778612 0.000000
0.604266 0.749918 0.000000
0.625328 0.585164 0.000000
0.513037 0.628128 0.000000
0.516883 0.475555 0.000000
0.358971 0.785459 0.000000
0.393288 0.634976 0.000000
0.289724 0.631842 0.000000
0.314137 0.497620 0.000000
0.417701 0.500754 0.000000
0.419648 0.369868 0.000000
0.328838 0.378884 0.000000
0.325310 0.268398 0.000000
0.226036 0.484581 0.000000
0.240737 0.365845 0.000000
0.163803 0.338882 0.000000
0.243601 0.260297 0.000000
0.282394 1.305299 0.000000
0.357509 1.105607 0.000000
0.123339 1.252592 0.000000
0.100971 1.068955 0.000000
0.224311 1.096547 0.000000
0.299119 0.934939 0.000000
0.183097 0.918206 0.000000
0.242949 0.768727 0.000000
0.082126 0.890918 0.000000
0.065403 0.715609 0.000000
0.147529 0.748193 0.000000
0.194303 0.611308 0.000000
0.114496 0.581440 0.000000
0.146229 0.454713 0.000000
0.049093 0.540831 0.000000
0.082426 0.415831 0.000000
-0.390034 0.858069 0.000000
-0.258592 0.558961 0.000000
-0.689510 0.478404 0.000000
-0.468822 0.302562 0.000000
-0.467554 1.021673 0.000000
-0.203612 1.006383 0.000000
-0.246562 1.188338 0.000000
-0.321255 0.705049 0.000000
-0.131464 0.665265 0.000000
-0.164446 0.832004 0.000000
-0.194863 0.411679 0.000000
-0.098507 0.498678 0.000000
-0.795221 0.564672 0.000000
-0.560996 0.691029 0.000000
-0.646871 0.807178 0.000000
-0.568795 0.386755 0.000000
-0.380065 0.445574 0.000000
-0.458051 0.556986 0.000000
-0.363238 0.216050 0.000000
-0.285916 0.319579 0.000000
-0.745060 0.238879 0.000000
-0.860178 0.284263 0.000000
-0.534459 0.151255 0.000000
-0.637949 0.194576 0.000000
-0.433185 0.108677 0.000000
-0.282336 1.305210 0.000000
-0.123281 1.252502 0.000000
-0.523505 1.122089 0.000000
-0.357058 1.105006 0.000000
-0.428794 0.939871 0.000000
-0.296823 0.932226 0.000000
-0.225087 1.097361 0.000000
-0.101806 1.069858 0.000000
-0.184029 0.919194 0.000000
-0.082223 0.891002 0.000000
-0.355644 0.781559 0.000000
-0.242850 0.768527 0.000000
-0.289923 0.632005 0.000000
-0.195028 0.612113 0.000000
-0.147955 0.748634 0.000000
-0.065732 0.715966 0.000000
-0.114986 0.581972 0.000000
-0.049254 0.541006 0.000000
-0.226728 0.485320 0.000000
-0.146685 0.455179 0.000000
-0.164098 0.339173 0.000000
-0.082587 0.416006 0.000000
-0.709146 0.880834 0.000000
[...]
POINT_DATA 565
VECTORS sol double
+0.665917 -0.006851 0
+0.078026 -0.000803 0
+0.665907 -0.006851 0
+0.078033 -0.000803 0
+0.000000 +0.000000 0
+0.000000 +0.000000 0
+0.000000 +0.000000 0
+0.000000 +0.000000 0
+0.682593 -0.007022 0
+0.649629 -0.006683 0
+0.565765 -0.005820 0
+0.435333 -0.004479 0
+0.268182 -0.002759 0
+0.680080 -0.006997 0
+0.672460 -0.006918 0
+0.613916 -0.006316 0
+0.505910 -0.005205 0
+0.355707 -0.003659 0
+0.175050 -0.001801 0
+0.268181 -0.002759 0
+0.435323 -0.004479 0
+0.565764 -0.005820 0
+0.649637 -0.006683 0
+0.682582 -0.007022 0
+0.175046 -0.001801 0
+0.355708 -0.003659 0
+0.505919 -0.005205 0
+0.613894 -0.006316 0
+0.672452 -0.006918 0
+0.680071 -0.006996 0
+0.682585 -0.007022 0
+0.649625 -0.006683 0
+0.565764 -0.005820 0
+0.435336 -0.004479 0
+0.268188 -0.002759 0
+0.680070 -0.006996 0
+0.672454 -0.006918 0
+0.613914 -0.006316 0
+0.505911 -0.005205 0
+0.355711 -0.003659 0
+0.175057 -0.001801 0
+0.268188 -0.002759 0
+0.435331 -0.004479 0
+0.565772 -0.005821 0
+0.649647 -0.006683 0
+0.682592 -0.007022 0
+0.175053 -0.001801 0
+0.355716 -0.003660 0
+0.505927 -0.005205 0
+0.613903 -0.006316 0
+0.672462 -0.006918 0
+0.680082 -0.006997 0
+0.000000 +0.000000 0
+0.000000 +0.000000 0
+0.000000 +0.000000 0
+0.000000 +0.000000 0
+0.000000 +0.000000 0
+0.000000 +0.000000 0
+0.000000 +0.000000 0
+0.000000 +0.000000 0
+0.000000 +0.000000 0
+0.000000 +0.000000 0
+0.000000 +0.000000 0
+0.000000 +0.000000 0
+0.000000 +0.000000 0
+0.000000 +0.000000 0
+0.000000 +0.000000 0
+0.000000 +0.000000 0
+0.000000 +0.000000 0
+0.000000 +0.000000 0
+0.000000 +0.000000 0
+0.000000 +0.000000 0
+0.000000 +0.000000 0
+0.000000 +0.000000 0
+0.000000 +0.000000 0
+0.000000 +0.000000 0
+0.000000 +0.000000 0
+0.000000 +0.000000 0
+0.000000 +0.000000 0
+0.000000 +0.000000 0
+0.000000 +0.000000 0
+0.000000 +0.000000 0
+0.000000 +0.000000 0
+0.000000 +0.000000 0
+0.000000 +0.000000 0
+0.000000 +0.000000 0
+0.000000 +0.000000 0
+0.000000 +0.000000 0
+0.000000 +0.000000 0
+0.000000 +0.000000 0
+0.000000 +0.000000 0
+0.000000 +0.000000 0
+0.000000 +0.000000 0
+0.000000 +0.000000 0
+0.000000 +0.000000 0
+0.000000 +0.000000 0
-0.446120 +0.004590 0
-0.833690 +0.008577 0
-1.001436 +0.010303 0
-0.865639 +0.008906 0
-0.458812 +0.004720 0
-0.218559 +0.002248 0
-0.659332 +0.006783 0
-0.953338 +0.009808 0
-0.972146 +0.010001 0
-0.688486 +0.007083 0
-0.193386 +0.001990 0
+0.138478 -0.001425 0
+0.273691 -0.002816 0
+0.398493 -0.004100 0
+0.507040 -0.005216 0
+0.596425 -0.006136 0
+0.069564 -0.000716 0
+0.207531 -0.002135 0
+0.338225 -0.003480 0
+0.455265 -0.004684 0
+0.554266 -0.005702 0
+0.633489 -0.006517 0
-0.446112 +0.004590 0
-0.833689 +0.008577 0
-1.001439 +0.010303 0
-0.865646 +0.008906 0
-0.458823 +0.004720 0
-0.218542 +0.002248 0
-0.659329 +0.006783 0
-0.953338 +0.009808 0
-0.972155 +0.010001 0
-0.688498 +0.007083 0
-0.193395 +0.001990 0
+0.138468 -0.001425 0
+0.273709 -0.002816 0
+0.398488 -0.004100 0
+0.507019 -0.005216 0
+0.596412 -0.006136 0
+0.069561 -0.000716 0
+0.207552 -0.002135 0
+0.338194 -0.003479 0
+0.455259 -0.004684 0
+0.554251 -0.005702 0
+0.633477 -0.006517 0
-0.628252 +0.006463 0
-0.314109 +0.003232 0
+0.043902 -0.000452 0
+0.322276 -0.003316 0
-0.449028 +0.004620 0
-0.867829 +0.008928 0
-0.574004 +0.005905 0
-0.571438 +0.005879 0
-0.637227 +0.006556 0
-0.885098 +0.009106 0
+0.062126 -0.000639 0
-0.206062 +0.002120 0
-0.013450 +0.000138 0
-0.278888 +0.002869 0
-0.230587 +0.002372 0
+0.161636 -0.001663 0
+0.020889 -0.000215 0
-0.178904 +0.001841 0
+0.501533 -0.005160 0
+0.307461 -0.003163 0
+0.251624 -0.002589 0
+0.116152 -0.001195 0
+0.496619 -0.005109 0
+0.378820 -0.003897 0
+0.600701 -0.006180 0
-0.291807 +0.003002 0
-0.557483 +0.005735 0
-0.239165 +0.002460 0
-0.550513 +0.005664 0
-0.565566 +0.005818 0
-0.777237 +0.007996 0
-0.750019 +0.007716 0
-0.894124 +0.009199 0
-0.912296 +0.009386 0
-0.974411 +0.010025 0
-0.630012 +0.006481 0
-0.744939 +0.007664 0
-0.462924 +0.004762 0
-0.480629 +0.004945 0
-0.790542 +0.008133 0
-0.767246 +0.007893 0
-0.437075 +0.004497 0
-0.336025 +0.003457 0
-0.133979 +0.001378 0
-0.069897 +0.000719 0
+0.255705 -0.002631 0
+0.034895 -0.000359 0
-0.131351 +0.001351 0
-0.359231 +0.003696 0
-0.014442 +0.000149 0
-0.112496 +0.001157 0
+0.004873 -0.000050 0
-0.107596 +0.001107 0
-0.271716 +0.002795 0
-0.461287 +0.004746 0
-0.248303 +0.002554 0
-0.374221 +0.003850 0
+0.096615 -0.000994 0
+0.008490 -0.000087 0
+0.238518 -0.002454 0
+0.187600 -0.001930 0
-0.088399 +0.000909 0
-0.139872 +0.001439 0
+0.160506 -0.001651 0
+0.192255 -0.001978 0
+0.412693 -0.004246 0
+0.416535 -0.004285 0
+0.580295 -0.005970 0
+0.443335 -0.004561 0
+0.055719 -0.000573 0
+0.062006 -0.000638 0
+0.147290 -0.001515 0
+0.289094 -0.002974 0
+0.183134 -0.001884 0
+0.169813 -0.001747 0
+0.315636 -0.003247 0
+0.293825 -0.003023 0
+0.413881 -0.004258 0
+0.521669 -0.005367 0
+0.439194 -0.004518 0
+0.430005 -0.004424 0
+0.550977 -0.005668 0
+0.564792 -0.005810 0
+0.611083 -0.006287 0
+0.644532 -0.006631 0
+0.036945 -0.000380 0
+0.322224 -0.003315 0
-0.627609 +0.006457 0
-0.310411 +0.003193 0
-0.013482 +0.000139 0
+0.247638 -0.002548 0
+0.116182 -0.001195 0
+0.161415 -0.001661 0
+0.496335 -0.005106 0
+0.376237 -0.003871 0
+0.501286 -0.005157 0
+0.600616 -0.006179 0
-0.454547 +0.004676 0
-0.278359 +0.002864 0
-0.227793 +0.002343 0
-0.570300 +0.005867 0
+0.037675 -0.000388 0
-0.187489 +0.001929 0
+0.063994 -0.000658 0
+0.305103 -0.003139 0
-0.871783 +0.008969 0
-0.577547 +0.005942 0
-0.635093 +0.006534 0
-0.884828 +0.009103 0
-0.204691 +0.002106 0
+0.055732 -0.000573 0
+0.147273 -0.001515 0
-0.014458 +0.000149 0
+0.062011 -0.000638 0
+0.003367 -0.000035 0
+0.159846 -0.001644 0
+0.181040 -0.001863 0
+0.286827 -0.002951 0
+0.312534 -0.003215 0
+0.412563 -0.004244 0
+0.091056 -0.000937 0
+0.292786 -0.003012 0
+0.238629 -0.002455 0
+0.429811 -0.004422 0
+0.437744 -0.004503 0
+0.521526 -0.005365 0
+0.550811 -0.005667 0
+0.611050 -0.006286 0
+0.412439 -0.004243 0
+0.564631 -0.005809 0
+0.580175 -0.005969 0
+0.644499 -0.006630 0
-0.129672 +0.001334 0
-0.111798 +0.001150 0
-0.242449 +0.002494 0
-0.359347 +0.003697 0
-0.566981 +0.005833 0
-0.459169 +0.004724 0
-0.268392 +0.002761 0
-0.107567 +0.001107 0
-0.252106 +0.002594 0
+0.002795 -0.000029 0
-0.630105 +0.006482 0
-0.376653 +0.003875 0
-0.460598 +0.004739 0
-0.129801 +0.001335 0
-0.087951 +0.000905 0
+0.196319 -0.002020 0
+0.168835 -0.001737 0
+0.415180 -0.004271 0
-0.130843 +0.001346 0
+0.191950 -0.001975 0
+0.256638 -0.002640 0
+0.442194 -0.004549 0
-0.293752 +0.003022 0
-0.555362 +0.005713 0
-0.559129 +0.005752 0
-0.896153 +0.009219 0
-0.754384 +0.007761 0
-0.778509 +0.008009 0
-0.913691 +0.009400 0
-0.744253 +0.007657 0
-0.974406 +0.010025 0
-0.766245 +0.007883 0
-0.789210 +0.008119 0
-0.477741 +0.004915 0
-0.435059 +0.004476 0
-0.068238 +0.000702 0
-0.335341 +0.003450 0
+0.035595 -0.000366 0
-0.634853 +0.006531 0
-0.312293 +0.003213 0
+0.036876 -0.000379 0
+0.322274 -0.003316 0
-0.456843 +0.004700 0
-0.868797 +0.008938 0
-0.578028 +0.005947 0
-0.569730 +0.005861 0
-0.636383 +0.006547 0
-0.884866 +0.009103 0
+0.062526 -0.000643 0
-0.205665 +0.002116 0
-0.013476 +0.000139 0
-0.277644 +0.002856 0
-0.228460 +0.002350 0
+0.161506 -0.001662 0
+0.020884 -0.000215 0
-0.178646 +0.001838 0
+0.501519 -0.005160 0
+0.307456 -0.003163 0
+0.247582 -0.002547 0
+0.116185 -0.001195 0
+0.496401 -0.005107 0
+0.376242 -0.003871 0
+0.600664 -0.006180 0
-0.294019 +0.003025 0
-0.559372 +0.005755 0
-0.243844 +0.002509 0
-0.556889 +0.005729 0
-0.574251 +0.005908 0
-0.781963 +0.008045 0
-0.752421 +0.007741 0
-0.894643 +0.009204 0
-0.912892 +0.009392 0
-0.974387 +0.010024 0
-0.630700 +0.006489 0
-0.744126 +0.007655 0
-0.460609 +0.004739 0
-0.479298 +0.004931 0
-0.789694 +0.008124 0
-0.766858 +0.007889 0
-0.436335 +0.004489 0
-0.335830 +0.003455 0
-0.132707 +0.001365 0
-0.069493 +0.000715 0
+0.255897 -0.002633 0
+0.035097 -0.000361 0
-0.130191 +0.001339 0
-0.360754 +0.003711 0
-0.014449 +0.000149 0
-0.111864 +0.001151 0
+0.003330 -0.000034 0
-0.107078 +0.001102 0
-0.268330 +0.002761 0
-0.460754 +0.004740 0
-0.249452 +0.002566 0
-0.372754 +0.003835 0
+0.091182 -0.000938 0
+0.008333 -0.000086 0
+0.238463 -0.002453 0
+0.187594 -0.001930 0
-0.088484 +0.000910 0
-0.138949 +0.001429 0
+0.160498 -0.001651 0
+0.192438 -0.001980 0
+0.412683 -0.004246 0
+0.416526 -0.004285 0
+0.580284 -0.005970 0
+0.443327 -0.004561 0
+0.055732 -0.000573 0
+0.062000 -0.000638 0
+0.147273 -0.001515 0
+0.286789 -0.002950 0
+0.181010 -0.001862 0
+0.159829 -0.001644 0
+0.312499 -0.003215 0
+0.292804 -0.003012 0
+0.412570 -0.004244 0
+0.521551 -0.005366 0
+0.437822 -0.004504 0
+0.429875 -0.004422 0
+0.550855 -0.005667 0
+0.564769 -0.005810 0
+0.611060 -0.006286 0
+0.644509 -0.006631 0
+0.036945 -0.000380 0
+0.322221 -0.003315 0
-0.627604 +0.006457 0
-0.310404 +0.003193 0
-0.013482 +0.000139 0
+0.247635 -0.002548 0
+0.116181 -0.001195 0
+0.161415 -0.001661 0
+0.496327 -0.005106 0
+0.376227 -0.003871 0
+0.501282 -0.005157 0
+0.600607 -0.006179 0
-0.454544 +0.004676 0
-0.278355 +0.002864 0
-0.227791 +0.002343 0
-0.570293 +0.005867 0
+0.037677 -0.000388 0
-0.187486 +0.001929 0
+0.064000 -0.000658 0
+0.305104 -0.003139 0
-0.871779 +0.008969 0
-0.577547 +0.005942 0
-0.635083 +0.006534 0
-0.884820 +0.009103 0
-0.204683 +0.002106 0
+0.055731 -0.000573 0
+0.147273 -0.001515 0
-0.014457 +0.000149 0
+0.062010 -0.000638 0
+0.003367 -0.000035 0
+0.159843 -0.001644 0
+0.181034 -0.001862 0
+0.286822 -0.002951 0
+0.312537 -0.003215 0
+0.412557 -0.004244 0
+0.091054 -0.000937 0
+0.292782 -0.003012 0
+0.238627 -0.002455 0
+0.429805 -0.004422 0
+0.437734 -0.004503 0
+0.521514 -0.005365 0
+0.550802 -0.005667 0
+0.611039 -0.006286 0
+0.412436 -0.004243 0
+0.564625 -0.005809 0
+0.580170 -0.005969 0
+0.644490 -0.006630 0
-0.129671 +0.001334 0
-0.111797 +0.001150 0
-0.242448 +0.002494 0
-0.359344 +0.003697 0
-0.566977 +0.005833 0
-0.459165 +0.004724 0
-0.268390 +0.002761 0
-0.107565 +0.001107 0
-0.252102 +0.002594 0
+0.002796 -0.000029 0
-0.630099 +0.006482 0
-0.376647 +0.003875 0
-0.460591 +0.004738 0
-0.129797 +0.001335 0
-0.087948 +0.000905 0
+0.196319 -0.002020 0
+0.168836 -0.001737 0
+0.415178 -0.004271 0
-0.130837 +0.001346 0
+0.191953 -0.001975 0
+0.256642 -0.002640 0
+0.442194 -0.004549 0
-0.293751 +0.003022 0
-0.555360 +0.005713 0
-0.559130 +0.005752 0
-0.896152 +0.009219 0
-0.754382 +0.007761 0
-0.778504 +0.008009 0
-0.913685 +0.009400 0
-0.744245 +0.007657 0
-0.974399 +0.010024 0
-0.766236 +0.007883 0
-0.789201 +0.008119 0
-0.477732 +0.004915 0
-0.435049 +0.004476 0
-0.068231 +0.000702 0
-0.335332 +0.003450 0
+0.035602 -0.000366 0
+0.686845 -0.007066 0
+0.764915 -0.007869 0
+0.764919 -0.007869 0
+0.686842 -0.007066 0
+0.578220 -0.005949 0
+0.578215 -0.005949 0
+0.437452 -0.004500 0
+0.750870 -0.007725 0
+0.729239 -0.007502 0
+0.678054 -0.006976 0
+0.729234 -0.007502 0
+0.729574 -0.007506 0
+0.729242 -0.007502 0
+0.750872 -0.007725 0
+0.678056 -0.006976 0
+0.750870 -0.007725 0
+0.750869 -0.007725 0
+0.776086 -0.007984 0
+0.578214 -0.005949 0
+0.678050 -0.006976 0
+0.729243 -0.007502 0
+0.729582 -0.007506 0
+0.578212 -0.005949 0
+0.678054 -0.006976 0
+0.437446 -0.004500 0
+0.355365 -0.003656 0
+0.355365 -0.003656 0
+0.510235 -0.005249 0
+0.512244 -0.005270 0
+0.637574 -0.006559 0
+0.637572 -0.006559 0
+0.512243 -0.005270 0
+0.510234 -0.005249 0
+0.633854 -0.006521 0
+0.626152 -0.006442 0
+0.724907 -0.007458 0
+0.720026 -0.007408 0
+0.764263 -0.007863 0
+0.753059 -0.007747 0
+0.710007 -0.007304 0
+0.694381 -0.007144 0
+0.735701 -0.007569 0
+0.711625 -0.007321 0
+0.753057 -0.007747 0
+0.735701 -0.007569 0
+0.694383 -0.007144 0
+0.711625 -0.007321 0
+0.626158 -0.006442 0
+0.633856 -0.006521 0
+0.694391 -0.007144 0
+0.710014 -0.007305 0
+0.753063 -0.007747 0
+0.764265 -0.007863 0
+0.720028 -0.007408 0
+0.724908 -0.007458 0
+0.769744 -0.007919 0
+0.769743 -0.007919 0
+0.764265 -0.007863 0
+0.769743 -0.007919 0
+0.724906 -0.007458 0
+0.724905 -0.007458 0
+0.769742 -0.007919 0
+0.764262 -0.007863 0
+0.720023 -0.007407 0
+0.710007 -0.007304 0
+0.637569 -0.006559 0
+0.633850 -0.006521 0
+0.510228 -0.005249 0
+0.626150 -0.006442 0
+0.711634 -0.007321 0
+0.735708 -0.007569 0
+0.711632 -0.007321 0
+0.694385 -0.007144 0
+0.735707 -0.007569 0
+0.753063 -0.007747 0
+0.710009 -0.007304 0
+0.720026 -0.007408 0
+0.626152 -0.006442 0
+0.510231 -0.005249 0
+0.633853 -0.006521 0
+0.637569 -0.006559 0
+0.512239 -0.005270 0
+0.512238 -0.005270 0
+0.355359 -0.003656 0
+0.355358 -0.003656 0
