# vtk DataFile Version 2.0
MyTitle
ASCII
DATASET UNSTRUCTURED_GRID
POINTS 565 double
0.400000 0.000000 0.000000
0.000000 0.400000 0.000000
-0.400000 0.000000 0.000000
0.000000 -0.400000 0.000000
0.000000 -1.500000 0.000000
1.000000 0.000000 0.000000
0.000000 1.500000 0.000000
-1.000000 0.000000 0.000000
0.333333 0.066667 0.000000
0.266667 0.133333 0.000000
0.200000 0.200000 0.000000
0.133333 0.266667 0.000000
0.066667 0.333333 0.000000
0.366667 0.033333 0.000000
0.300000 0.100000 0.000000
0.233333 0.166667 0.000000
0.166667 0.233333 0.000000
0.100000 0.300000 0.000000
0.033333 0.366667 0.000000
-0.066667 0.333333 0.000000
-0.133333 0.266667 0.000000
-0.200000 0.200000 0.000000
-0.266667 0.133333 0.000000
-0.333333 0.066667 0.000000
-0.033333 0.366667 0.000000
-0.100000 0.300000 0.000000
-0.166667 0.233333 0.000000
-0.233333 0.166667 0.000000
-0.300000 0.100000 0.000000
-0.366667 0.033333 0.000000
-0.333333 -0.066667 0.000000
-0.266667 -0.133333 0.000000
-0.200000 -0.200000 0.000000
-0.133333 -0.266667 0.000000
-0.066667 -0.333333 0.000000
-0.366667 -0.033333 0.000000
-0.300000 -0.100000 0.000000
-0.233333 -0.166667 0.000000
-0.166667 -0.233333 0.000000
-0.100000 -0.300000 0.000000
-0.033333 -0.366667 0.000000
0.066667 -0.333333 0.000000
0.133333 -0.266667 0.000000
0.200000 -0.200000 0.000000
0.266667 -0.133333 0.000000
0.333333 -0.066667 0.000000
0.033333 -0.366667 0.000000
0.100000 -0.300000 0.000000
0.166667 -0.233333 0.000000
0.233333 -0.166667 0.000000
0.300000 -0.100000 0.000000
0.366667 -0.033333 0.000000
0.318109 -1.422081 0.000000
0.579456 -1.222505 0.000000
0.771420 -0.954490 0.000000
0.900932 -0.650940 0.000000
0.975602 -0.329323 0.000000
0.163611 -1.479787 0.000000
0.457521 -1.333798 0.000000
0.683799 -1.094506 0.000000
0.843445 -0.805823 0.000000
0.944761 -0.491642 0.000000
0.993923 -0.165116 0.000000
0.975602 0.329323 0.000000
0.900932 0.650940 0.000000
0.771420 0.954490 0.000000
0.579456 1.222505 0.000000
0.318109 1.422081 0.000000
0.993923 0.165116 0.000000
0.944761 0.491642 0.000000
0.843445 0.805823 0.000000
0.683799 1.094506 0.000000
0.457521 1.333798 0.000000
0.163611 1.479787 0.000000
-0.318109 1.422081 0.000000
-0.579456 1.222505 0.000000
-0.771420 0.954490 0.000000
-0.900932 0.650940 0.000000
-0.975602 0.329323 0.000000
-0.163611 1.479787 0.000000
-0.457521 1.333798 0.000000
-0.683799 1.094506 0.000000
-0.843445 0.805823 0.000000
-0.944761 0.491642 0.000000
-0.993923 0.165116 0.000000
-0.975602 -0.329323 0.000000
-0.900932 -0.650940 0.000000
-0.771420 -0.954490 0.000000
-0.579456 -1.222505 0.000000
-0.318109 -1.422081 0.000000
-0.993923 -0.165116 0.000000
-0.944761 -0.491642 0.000000
-0.843445 -0.805823 0.000000
-0.683799 -1.094506 0.000000
-0.457521 -1.333798 0.000000
-0.163611 -1.479787 0.000000
0.000000 -1.316667 0.000000
0.000000 -1.133333 0.000000
0.000000 -0.950000 0.000000
0.000000 -0.766667 0.000000
0.000000 -0.583333 0.000000
0.000000 -1.408333 0.000000
0.000000 -1.225000 0.000000
0.000000 -1.041667 0.000000
0.000000 -0.858333 0.000000
0.000000 -0.675000 0.000000
0.000000 -0.491667 0.000000
0.900000 0.000000 0.000000
0.800000 0.000000 0.000000
0.700000 0.000000 0.000000
0.600000 0.000000 0.000000
0.500000 0.000000 0.000000
0.950000 0.000000 0.000000
0.850000 0.000000 0.000000
0.750000 0.000000 0.000000
0.650000 0.000000 0.000000
0.550000 0.000000 0.000000
0.450000 0.000000 0.000000
0.000000 1.316667 0.000000
0.000000 1.133333 0.000000
0.000000 0.950000 0.000000
0.000000 0.766667 0.000000
0.000000 0.583333 0.000000
0.000000 1.408333 0.000000
0.000000 1.225000 0.000000
0.000000 1.041667 0.000000
0.000000 0.858333 0.000000
0.000000 0.675000 0.000000
0.000000 0.491667 0.000000
-0.900000 0.000000 0.000000
-0.800000 0.000000 0.000000
-0.700000 0.000000 0.000000
-0.600000 0.000000 0.000000
-0.500000 0.000000 0.000000
-0.950000 0.000000 0.000000
-0.850000 0.000000 0.000000
-0.750000 0.000000 0.000000
-0.650000 0.000000 0.000000
-0.550000 0.000000 0.000000
-0.450000 0.000000 0.000000
0.395719 -0.864575 0.000000
0.259395 -0.559861 0.000000
0.669282 -0.470468 0.000000
0.468822 -0.302562 0.000000
0.470294 -1.024958 0.000000
0.204156 -1.007017 0.000000
0.247763 -1.189717 0.000000
0.323269 -0.707398 0.000000
0.131880 -0.665738 0.000000
0.165412 -0.833111 0.000000
0.195001 -0.411834 0.000000
0.098639 -0.498826 0.000000
0.795221 -0.564672 0.000000
0.555245 -0.685751 0.000000
0.645327 -0.806816 0.000000
0.568795 -0.386755 0.000000
0.380065 -0.445574 0.000000
0.456725 -0.556587 0.000000
0.363238 -0.216050 0.000000
0.285916 -0.319579 0.000000
0.741626 -0.237527 0.000000
0.860178 -0.284263 0.000000
0.534262 -0.151178 0.000000
0.635836 -0.193746 0.000000
0.433160 -0.108667 0.000000
0.282936 -1.305899 0.000000
0.123881 -1.253192 0.000000
0.524875 -1.123732 0.000000
0.359028 -1.107338 0.000000
0.433006 -0.944767 0.000000
0.299938 -0.935796 0.000000
0.225960 -1.098367 0.000000
0.102078 -1.070175 0.000000
0.184784 -0.920064 0.000000
0.082706 -0.891556 0.000000
0.359494 -0.785987 0.000000
0.244341 -0.770255 0.000000
0.291332 -0.633629 0.000000
0.195638 -0.612799 0.000000
0.148646 -0.749424 0.000000
0.065940 -0.716202 0.000000
0.115259 -0.582282 0.000000
0.049319 -0.541080 0.000000
0.227198 -0.485847 0.000000
0.146820 -0.455330 0.000000
0.164167 -0.339250 0.000000
0.082653 -0.416080 0.000000
0.708374 -0.880653 0.000000
0.557810 -0.915887 0.000000
0.848077 -0.607806 0.000000
0.720274 -0.685744 0.000000
0.732252 -0.517570 0.000000
0.612264 -0.578110 0.000000
0.600286 -0.746284 0.000000
0.475482 -0.775163 0.000000
0.505985 -0.621169 0.000000
0.389997 -0.631993 0.000000
0.619038 -0.428612 0.000000
0.512760 -0.471671 0.000000
0.518808 -0.344658 0.000000
0.424443 -0.374068 0.000000
0.418395 -0.501081 0.000000
0.319730 -0.502718 0.000000
0.332990 -0.382577 0.000000
0.240459 -0.365707 0.000000
0.416030 -0.259306 0.000000
0.324577 -0.267815 0.000000
0.314952 -0.174692 0.000000
0.242958 -0.259790 0.000000
0.917890 -0.306793 0.000000
0.827700 -0.424467 0.000000
0.880089 -0.142131 0.000000
0.770813 -0.118764 0.000000
0.800902 -0.260895 0.000000
0.705454 -0.353998 0.000000
0.688731 -0.215637 0.000000
0.602315 -0.290251 0.000000
0.667918 -0.096873 0.000000
0.567131 -0.075589 0.000000
0.585049 -0.172462 0.000000
0.501542 -0.226870 0.000000
0.483711 -0.129922 0.000000
0.398199 -0.162358 0.000000
0.466580 -0.054333 0.000000
0.383247 -0.087667 0.000000
0.689510 0.478404 0.000000
0.468822 0.302562 0.000000
0.396294 0.865300 0.000000
0.257800 0.558065 0.000000
0.795221 0.564672 0.000000
0.745015 0.238857 0.000000
0.860178 0.284263 0.000000
0.568839 0.386777 0.000000
0.534533 0.151292 0.000000
0.637973 0.194587 0.000000
0.363420 0.216203 0.000000
0.433226 0.108706 0.000000
0.468341 1.022695 0.000000
0.561146 0.691924 0.000000
0.647386 0.807913 0.000000
0.321648 0.705619 0.000000
0.370475 0.437175 0.000000
0.464928 0.564333 0.000000
0.194273 0.411098 0.000000
0.287201 0.320593 0.000000
0.201943 1.004577 0.000000
0.246678 1.188518 0.000000
0.130806 0.664551 0.000000
0.164251 0.831835 0.000000
0.098186 0.498329 0.000000
0.917890 0.306793 0.000000
0.880089 0.142131 0.000000
0.848077 0.607806 0.000000
0.827700 0.424467 0.000000
0.742366 0.521538 0.000000
0.717263 0.358630 0.000000
0.802597 0.261560 0.000000
0.772507 0.119428 0.000000
0.691494 0.216722 0.000000
0.668987 0.097293 0.000000
0.629175 0.432591 0.000000
0.603406 0.290682 0.000000
0.518830 0.344669 0.000000
0.501677 0.226927 0.000000
0.586253 0.172940 0.000000
0.567266 0.075646 0.000000
0.483880 0.129999 0.000000
0.466613 0.054353 0.000000
0.416121 0.259382 0.000000
0.398323 0.162455 0.000000
0.315043 0.174768 0.000000
0.383280 0.087686 0.000000
0.709403 0.881201 0.000000
0.721304 0.686292 0.000000
0.523898 1.122600 0.000000
0.557863 0.915304 0.000000
0.432317 0.943998 0.000000
0.478720 0.778612 0.000000
0.604266 0.749918 0.000000
0.625328 0.585164 0.000000
0.513037 0.628128 0.000000
0.516883 0.475555 0.000000
0.358971 0.785459 0.000000
0.393288 0.634976 0.000000
0.289724 0.631842 0.000000
0.314137 0.497620 0.000000
0.417701 0.500754 0.000000
0.419648 0.369868 0.000000
0.328838 0.378884 0.000000
0.325310 0.268398 0.000000
0.226036 0.484581 0.000000
0.240737 0.365845 0.000000
0.163803 0.338882 0.000000
0.243601 0.260297 0.000000
0.282394 1.305299 0.000000
0.357509 1.105607 0.000000
0.123339 1.252592 0.000000
0.100971 1.068955 0.000000
0.224311 1.096547 0.000000
0.299119 0.934939 0.000000
0.183097 0.918206 0.000000
0.242949 0.768727 0.000000
0.082126 0.890918 0.000000
0.065403 0.715609 0.000000
0.147529 0.748193 0.000000
0.194303 0.611308 0.000000
0.114496 0.581440 0.000000
0.146229 0.454713 0.000000
0.049093 0.540831 0.000000
0.082426 0.415831 0.000000
-0.390034 0.858069 0.000000
-0.258592 0.558961 0.000000
-0.689510 0.478404 0.000000
-0.468822 0.302562 0.000000
-0.467554 1.021673 0.000000
-0.203612 1.006383 0.000000
-0.246562 1.188338 0.000000
-0.321255 0.705049 0.000000
-0.131464 0.665265 0.000000
-0.164446 0.832004 0.000000
-0.194863 0.411679 0.000000
-0.098507 0.498678 0.000000
-0.795221 0.564672 0.000000
-0.560996 0.691029 0.000000
-0.646871 0.807178 0.000000
-0.568795 0.386755 0.000000
-0.380065 0.445574 0.000000
-0.458051 0.556986 0.000000
-0.363238 0.216050 0.000000
-0.285916 0.319579 0.000000
-0.745060 0.238879 0.000000
-0.860178 0.284263 0.000000
-0.534459 0.151255 0.000000
-0.637949 0.194576 0.000000
-0.433185 0.108677 0.000000
-0.282336 1.305210 0.000000
-0.123281 1.252502 0.000000
-0.523505 1.122089 0.000000
-0.357058 1.105006 0.000000
-0.428794 0.939871 0.000000
-0.296823 0.932226 0.000000
-0.225087 1.097361 0.000000
-0.101806 1.069858 0.000000
-0.184029 0.919194 0.000000
-0.082223 0.891002 0.000000
-0.355644 0.781559 0.000000
-0.242850 0.768527 0.000000
-0.289923 0.632005 0.000000
-0.195028 0.612113 0.000000
-0.147955 0.748634 0.000000
-0.065732 0.715966 0.000000
-0.114986 0.581972 0.000000
-0.049254 0.541006 0.000000
-0.226728 0.485320 0.000000
-0.146685 0.455179 0.000000
-0.164098 0.339173 0.000000
-0.082587 0.416006 0.000000
-0.709146 0.880834 0.000000
[...]
POINT_DATA 565
VECTORS sol double
+0.000013 -0.000000 0
-0.714724 +0.001825 0
-0.000024 +0.000000 0
+0.714747 -0.001825 0
+0.000000 +0.000000 0
+0.000000 +0.000000 0
+0.000000 +0.000000 0
+0.000000 +0.000000 0
-0.207926 +0.000531 0
-0.412400 +0.001053 0
-0.585399 +0.001495 0
-0.702687 +0.001794 0
-0.748046 +0.001910 0
-0.102414 +0.000261 0
-0.312077 +0.000797 0
-0.504112 +0.001287 0
-0.652071 +0.001665 0
-0.735111 +0.001877 0
-0.741386 +0.001893 0
-0.748034 +0.001910 0
-0.702684 +0.001794 0
-0.585403 +0.001495 0
-0.412415 +0.001053 0
-0.207953 +0.000531 0
-0.741379 +0.001893 0
-0.735110 +0.001877 0
-0.652068 +0.001665 0
-0.504123 +0.001287 0
-0.312095 +0.000797 0
-0.102448 +0.000262 0
+0.207913 -0.000531 0
+0.412387 -0.001053 0
+0.585391 -0.001495 0
+0.702687 -0.001794 0
+0.748057 -0.001910 0
+0.102402 -0.000261 0
+0.312064 -0.000797 0
+0.504102 -0.001287 0
+0.652067 -0.001665 0
+0.735117 -0.001877 0
+0.741402 -0.001893 0
+0.748058 -0.001910 0
+0.702707 -0.001794 0
+0.585419 -0.001495 0
+0.412423 -0.001053 0
+0.207952 -0.000531 0
+0.741404 -0.001893 0
+0.735134 -0.001877 0
+0.652084 -0.001665 0
+0.504134 -0.001287 0
+0.312099 -0.000797 0
+0.102442 -0.000262 0
+0.000000 +0.000000 0
+0.000000 +0.000000 0
+0.000000 +0.000000 0
+0.000000 +0.000000 0
+0.000000 +0.000000 0
+0.000000 +0.000000 0
+0.000000 +0.000000 0
+0.000000 +0.000000 0
+0.000000 +0.000000 0
+0.000000 +0.000000 0
+0.000000 +0.000000 0
+0.000000 +0.000000 0
+0.000000 +0.000000 0
+0.000000 +0.000000 0
+0.000000 +0.000000 0
+0.000000 +0.000000 0
+0.000000 +0.000000 0
+0.000000 +0.000000 0
+0.000000 +0.000000 0
+0.000000 +0.000000 0
+0.000000 +0.000000 0
+0.000000 +0.000000 0
+0.000000 +0.000000 0
+0.000000 +0.000000 0
+0.000000 +0.000000 0
+0.000000 +0.000000 0
+0.000000 +0.000000 0
+0.000000 +0.000000 0
+0.000000 +0.000000 0
+0.000000 +0.000000 0
+0.000000 +0.000000 0
+0.000000 +0.000000 0
+0.000000 +0.000000 0
+0.000000 +0.000000 0
+0.000000 +0.000000 0
+0.000000 +0.000000 0
+0.000000 +0.000000 0
+0.000000 +0.000000 0
+0.000000 +0.000000 0
+0.000000 +0.000000 0
+0.000000 +0.000000 0
+0.000000 +0.000000 0
+0.000000 +0.000000 0
+0.000000 +0.000000 0
-0.637754 +0.001628 0
-1.053699 +0.002690 0
-0.973502 +0.002485 0
-0.423622 +0.001082 0
+0.278046 -0.000710 0
-0.323042 +0.000825 0
-0.898699 +0.002294 0
-1.082585 +0.002764 0
-0.741008 +0.001892 0
-0.062093 +0.000159 0
+0.553623 -0.001413 0
+0.000007 -0.000000 0
-0.000001 +0.000000 0
+0.000021 -0.000000 0
+0.000015 -0.000000 0
+0.000017 -0.000000 0
+0.000003 -0.000000 0
-0.000060 +0.000000 0
+0.000053 -0.000000 0
+0.000029 -0.000000 0
+0.000017 -0.000000 0
+0.000016 -0.000000 0
+0.637747 -0.001628 0
+1.053694 -0.002690 0
+0.973487 -0.002485 0
+0.423656 -0.001082 0
-0.278007 +0.000710 0
+0.323005 -0.000825 0
+0.898674 -0.002294 0
+1.082601 -0.002764 0
+0.741030 -0.001892 0
+0.062133 -0.000159 0
-0.553593 +0.001413 0
-0.000010 +0.000000 0
-0.000018 +0.000000 0
-0.000026 +0.000000 0
-0.000037 +0.000000 0
-0.000030 +0.000000 0
-0.000006 +0.000000 0
-0.000015 +0.000000 0
-0.000032 +0.000000 0
-0.000023 +0.000000 0
-0.000033 +0.000000 0
-0.000028 +0.000000 0
-0.362163 +0.000925 0
+0.399943 -0.001021 0
+0.406687 -0.001038 0
+0.616277 -0.001573 0
-0.394284 +0.001007 0
-0.897250 +0.002291 0
-0.728715 +0.001860 0
-0.024347 +0.000062 0
+0.000324 -0.000001 0
-0.582162 +0.001486 0
+0.697783 -0.001781 0
+0.539055 -0.001376 0
+0.182243 -0.000465 0
+0.165457 -0.000422 0
+0.004248 -0.000011 0
+0.552286 -0.001410 0
+0.629162 -0.001606 0
+0.428308 -0.001093 0
+0.569690 -0.001454 0
+0.713528 -0.001822 0
+0.297839 -0.000760 0
+0.167490 -0.000428 0
+0.357161 -0.000912 0
+0.357608 -0.000913 0
+0.303697 -0.000775 0
-0.396870 +0.001013 0
-0.765852 +0.001955 0
-0.239157 +0.000611 0
-0.610396 +0.001558 0
-0.422315 +0.001078 0
-0.652487 +0.001666 0
-0.876886 +0.002239 0
-1.045180 +0.002668 0
-0.792834 +0.002024 0
-0.815077 +0.002081 0
-0.221856 +0.000566 0
-0.301226 +0.000769 0
+0.190857 -0.000487 0
+0.216621 -0.000553 0
-0.306306 +0.000782 0
-0.216782 +0.000553 0
+0.295680 -0.000755 0
+0.419174 -0.001070 0
+0.578200 -0.001476 0
+0.635549 -0.001623 0
+0.740725 -0.001891 0
+0.695806 -0.001776 0
-0.024076 +0.000061 0
-0.191120 +0.000488 0
+0.087691 -0.000224 0
+0.139798 -0.000357 0
+0.298112 -0.000761 0
+0.340560 -0.000869 0
+0.069910 -0.000178 0
-0.068999 +0.000176 0
+0.293499 -0.000749 0
+0.240439 -0.000614 0
+0.488585 -0.001247 0
+0.542020 -0.001384 0
+0.596932 -0.001524 0
+0.661203 -0.001688 0
+0.538983 -0.001376 0
+0.546079 -0.001394 0
+0.696417 -0.001778 0
+0.725446 -0.001852 0
+0.608083 -0.001552 0
+0.660094 -0.001685 0
+0.502919 -0.001284 0
+0.675159 -0.001724 0
+0.087749 -0.000224 0
+0.210415 -0.000537 0
+0.091500 -0.000234 0
+0.153182 -0.000391 0
+0.240647 -0.000614 0
+0.397733 -0.001015 0
+0.335479 -0.000856 0
+0.493867 -0.001261 0
+0.180708 -0.000461 0
+0.178492 -0.000456 0
+0.364501 -0.000931 0
+0.511310 -0.001305 0
+0.336341 -0.000859 0
+0.446424 -0.001140 0
+0.150345 -0.000384 0
+0.260090 -0.000664 0
-0.377713 +0.000964 0
-0.616147 +0.001573 0
+0.362749 -0.000926 0
-0.404737 +0.001033 0
-0.182376 +0.000466 0
-0.295060 +0.000753 0
-0.167560 +0.000428 0
-0.552221 +0.001410 0
-0.357244 +0.000912 0
-0.356750 +0.000911 0
-0.569916 +0.001455 0
-0.303744 +0.000775 0
+0.398080 -0.001016 0
-0.154641 +0.000395 0
-0.003977 +0.000010 0
+0.020029 -0.000051 0
-0.641631 +0.001638 0
-0.411991 +0.001052 0
-0.698606 +0.001784 0
-0.713538 +0.001822 0
+0.898388 -0.002294 0
+0.732716 -0.001871 0
-0.004292 +0.000011 0
+0.579158 -0.001479 0
-0.540239 +0.001379 0
-0.087790 +0.000224 0
-0.091496 +0.000234 0
-0.087725 +0.000224 0
-0.210332 +0.000537 0
-0.282535 +0.000721 0
-0.382241 +0.000976 0
-0.238671 +0.000609 0
-0.152803 +0.000390 0
-0.333986 +0.000853 0
-0.180889 +0.000462 0
-0.475732 +0.001215 0
-0.493170 +0.001259 0
-0.597109 +0.001524 0
-0.511227 +0.001305 0
-0.364320 +0.000930 0
-0.178544 +0.000456 0
-0.336429 +0.000859 0
-0.150364 +0.000384 0
-0.608084 +0.001552 0
-0.446579 +0.001140 0
-0.503051 +0.001284 0
-0.260111 +0.000664 0
+0.023777 -0.000061 0
-0.138733 +0.000354 0
+0.242213 -0.000618 0
+0.190544 -0.000486 0
+0.422641 -0.001079 0
+0.073251 -0.000187 0
-0.065789 +0.000168 0
-0.322726 +0.000824 0
-0.278901 +0.000712 0
-0.535229 +0.001366 0
+0.220910 -0.000564 0
-0.233608 +0.000596 0
-0.195463 +0.000499 0
-0.556318 +0.001420 0
-0.539716 +0.001378 0
-0.664743 +0.001697 0
-0.699375 +0.001786 0
-0.660422 +0.001686 0
-0.580850 +0.001483 0
-0.725381 +0.001852 0
-0.740755 +0.001891 0
-0.675617 +0.001725 0
+0.399470 -0.001020 0
+0.614965 -0.001570 0
+0.767885 -0.001960 0
+1.046116 -0.002671 0
+0.880544 -0.002248 0
+0.652505 -0.001666 0
+0.790974 -0.002019 0
+0.297499 -0.000760 0
+0.813712 -0.002077 0
+0.214632 -0.000548 0
+0.302437 -0.000772 0
-0.221165 +0.000565 0
-0.298322 +0.000762 0
-0.636648 +0.001625 0
-0.419887 +0.001072 0
-0.696109 +0.001777 0
+0.357629 -0.000913 0
-0.402232 +0.001027 0
-0.377543 +0.000964 0
-0.616274 +0.001573 0
+0.399561 -0.001020 0
+0.897445 -0.002291 0
+0.733242 -0.001872 0
+0.018485 -0.000047 0
-0.001855 +0.000005 0
+0.579738 -0.001480 0
-0.697931 +0.001782 0
-0.539370 +0.001377 0
-0.182377 +0.000466 0
-0.156299 +0.000399 0
-0.004397 +0.000011 0
-0.552245 +0.001410 0
-0.629147 +0.001606 0
-0.427551 +0.001092 0
-0.569679 +0.001454 0
-0.713516 +0.001822 0
-0.295042 +0.000753 0
-0.167562 +0.000428 0
-0.357218 +0.000912 0
-0.356777 +0.000911 0
-0.303711 +0.000775 0
+0.399827 -0.001021 0
+0.768171 -0.001961 0
+0.243533 -0.000622 0
+0.616432 -0.001574 0
+0.424517 -0.001084 0
+0.651891 -0.001664 0
+0.879009 -0.002244 0
+1.045435 -0.002669 0
+0.791805 -0.002022 0
+0.813912 -0.002078 0
+0.214325 -0.000547 0
+0.296996 -0.000758 0
-0.195237 +0.000498 0
-0.218666 +0.000558 0
+0.303894 -0.000776 0
+0.215975 -0.000551 0
-0.296613 +0.000757 0
-0.419354 +0.001071 0
-0.579236 +0.001479 0
-0.635782 +0.001623 0
-0.740707 +0.001891 0
-0.695869 +0.001777 0
+0.023802 -0.000061 0
+0.190722 -0.000487 0
-0.087738 +0.000224 0
-0.139260 +0.000356 0
-0.282407 +0.000721 0
-0.323448 +0.000826 0
-0.067106 +0.000171 0
+0.067592 -0.000173 0
-0.287163 +0.000733 0
-0.242785 +0.000620 0
-0.475911 +0.001215 0
-0.541410 +0.001382 0
-0.596947 +0.001524 0
-0.661217 +0.001688 0
-0.538547 +0.001375 0
-0.546959 +0.001396 0
-0.696400 +0.001778 0
-0.725457 +0.001852 0
-0.608076 +0.001552 0
-0.660081 +0.001685 0
-0.502911 +0.001284 0
-0.675144 +0.001724 0
-0.087788 +0.000224 0
-0.210296 +0.000537 0
-0.091506 +0.000234 0
-0.152826 +0.000390 0
-0.238674 +0.000609 0
-0.382204 +0.000976 0
-0.333946 +0.000853 0
-0.493168 +0.001259 0
-0.180918 +0.000462 0
-0.178549 +0.000456 0
-0.364371 +0.000930 0
-0.511274 +0.001305 0
-0.336398 +0.000859 0
-0.446426 +0.001140 0
-0.150364 +0.000384 0
-0.260100 +0.000664 0
+0.377674 -0.000964 0
+0.616106 -0.001573 0
-0.362778 +0.000926 0
+0.404719 -0.001033 0
+0.182355 -0.000466 0
+0.295024 -0.000753 0
+0.167538 -0.000428 0
+0.552174 -0.001410 0
+0.357216 -0.000912 0
+0.356723 -0.000911 0
+0.569889 -0.001455 0
+0.303721 -0.000775 0
-0.398099 +0.001016 0
+0.154601 -0.000395 0
+0.003950 -0.000010 0
-0.020056 +0.000051 0
+0.641595 -0.001638 0
+0.411947 -0.001052 0
+0.698598 -0.001784 0
+0.713516 -0.001822 0
-0.898398 +0.002294 0
-0.732734 +0.001871 0
+0.004302 -0.000011 0
-0.579158 +0.001479 0
+0.540253 -0.001379 0
+0.087779 -0.000224 0
+0.091481 -0.000234 0
+0.087714 -0.000224 0
+0.210309 -0.000537 0
+0.282500 -0.000721 0
+0.382204 -0.000976 0
+0.238657 -0.000609 0
+0.152784 -0.000390 0
+0.333946 -0.000853 0
+0.180866 -0.000462 0
+0.475689 -0.001214 0
+0.493128 -0.001259 0
+0.597064 -0.001524 0
+0.511191 -0.001305 0
+0.364286 -0.000930 0
+0.178519 -0.000456 0
+0.336401 -0.000859 0
+0.150344 -0.000384 0
+0.608050 -0.001552 0
+0.446553 -0.001140 0
+0.503031 -0.001284 0
+0.260093 -0.000664 0
-0.023790 +0.000061 0
+0.138706 -0.000354 0
-0.242225 +0.000618 0
-0.190568 +0.000487 0
-0.422666 +0.001079 0
-0.073287 +0.000187 0
+0.065756 -0.000168 0
+0.322684 -0.000824 0
+0.278857 -0.000712 0
+0.535181 -0.001366 0
-0.220938 +0.000564 0
+0.233572 -0.000596 0
+0.195440 -0.000499 0
+0.556290 -0.001420 0
+0.539674 -0.001378 0
+0.664702 -0.001697 0
+0.699346 -0.001785 0
+0.660396 -0.001686 0
+0.580838 -0.001483 0
+0.725365 -0.001852 0
+0.740751 -0.001891 0
+0.675602 -0.001725 0
-0.399475 +0.001020 0
-0.614982 +0.001570 0
-0.767895 +0.001960 0
-1.046121 +0.002671 0
-0.880556 +0.002248 0
-0.652525 +0.001666 0
-0.790987 +0.002019 0
-0.297512 +0.000760 0
-0.813714 +0.002077 0
-0.214609 +0.000548 0
-0.302433 +0.000772 0
+0.221161 -0.000565 0
+0.298335 -0.000762 0
+0.636650 -0.001625 0
+0.419912 -0.001072 0
+0.696121 -0.001777 0
+0.436026 -0.001113 0
-0.000005 +0.000000 0
+0.000010 -0.000000 0
-0.436016 +0.001113 0
+0.599959 -0.001532 0
+0.599950 -0.001532 0
+0.709838 -0.001812 0
+0.228131 -0.000582 0
+0.221762 -0.000566 0
+0.430423 -0.001099 0
-0.221782 +0.000566 0
-0.000015 +0.000000 0
+0.221787 -0.000566 0
+0.228140 -0.000582 0
+0.430441 -0.001099 0
-0.228125 +0.000582 0
-0.228131 +0.000582 0
+0.000004 -0.000000 0
-0.599944 +0.001532 0
-0.430430 +0.001099 0
-0.221765 +0.000566 0
+0.000013 -0.000000 0
-0.599943 +0.001532 0
-0.430423 +0.001099 0
-0.709822 +0.001812 0
+0.738177 -0.001885 0
+0.738174 -0.001885 0
+0.659796 -0.001684 0
+0.663356 -0.001694 0
+0.524785 -0.001340 0
+0.524780 -0.001340 0
+0.663353 -0.001694 0
+0.659782 -0.001684 0
+0.521606 -0.001332 0
+0.515000 -0.001315 0
+0.336209 -0.000858 0
+0.334014 -0.000853 0
+0.114942 -0.000293 0
+0.113341 -0.000289 0
+0.329547 -0.000841 0
+0.322456 -0.000823 0
+0.110878 -0.000283 0
+0.107315 -0.000274 0
-0.113356 +0.000289 0
-0.110904 +0.000283 0
-0.322480 +0.000823 0
-0.107351 +0.000274 0
+0.515023 -0.001315 0
+0.521621 -0.001332 0
+0.322487 -0.000823 0
+0.329569 -0.000841 0
+0.113361 -0.000289 0
+0.114954 -0.000293 0
+0.334028 -0.000853 0
+0.336214 -0.000858 0
+0.115733 -0.000295 0
+0.115729 -0.000295 0
-0.114937 +0.000293 0
-0.115722 +0.000295 0
-0.336201 +0.000858 0
-0.336204 +0.000858 0
-0.115725 +0.000295 0
-0.114947 +0.000293 0
-0.334017 +0.000853 0
-0.329560 +0.000841 0
-0.524773 +0.001340 0
-0.521607 +0.001332 0
-0.659777 +0.001684 0
-0.515010 +0.001315 0
+0.107349 -0.000274 0
+0.110906 -0.000283 0
-0.107323 +0.000274 0
-0.322464 +0.000823 0
-0.110881 +0.000283 0
-0.113339 +0.000289 0
-0.329548 +0.000841 0
-0.334010 +0.000853 0
-0.515003 +0.001315 0
-0.659778 +0.001684 0
-0.521603 +0.001332 0
-0.524772 +0.001340 0
-0.663342 +0.001694 0
-0.663341 +0.001694 0
-0.738161 +0.001885 0
-0.738157 +0.001885 0
