# vtk DataFile Version 2.0
MyTitle
ASCII
DATASET UNSTRUCTURED_GRID
POINTS 565 double
0.400000 0.000000 0.000000
0.000000 0.400000 0.000000
-0.400000 0.000000 0.000000
0.000000 -0.400000 0.000000
0.000000 -1.500000 0.000000
1.000000 0.000000 0.000000
0.000000 1.500000 0.000000
-1.000000 0.000000 0.000000
0.333333 0.066667 0.000000
0.266667 0.133333 0.000000
0.200000 0.200000 0.000000
0.133333 0.266667 0.000000
0.066667 0.333333 0.000000
0.366667 0.033333 0.000000
0.300000 0.100000 0.000000
0.233333 0.166667 0.000000
0.166667 0.233333 0.000000
0.100000 0.300000 0.000000
0.033333 0.366667 0.000000
-0.066667 0.333333 0.000000
-0.133333 0.266667 0.000000
-0.200000 0.200000 0.000000
-0.266667 0.133333 0.000000
-0.333333 0.066667 0.000000
-0.033333 0.366667 0.000000
-0.100000 0.300000 0.000000
-0.166667 0.233333 0.000000
-0.233333 0.166667 0.000000
-0.300000 0.100000 0.000000
-0.366667 0.033333 0.000000
-0.333333 -0.066667 0.000000
-0.266667 -0.133333 0.000000
-0.200000 -0.200000 0.000000
-0.133333 -0.266667 0.000000
-0.066667 -0.333333 0.000000
-0.366667 -0.033333 0.000000
-0.300000 -0.100000 0.000000
-0.233333 -0.166667 0.000000
-0.166667 -0.233333 0.000000
-0.100000 -0.300000 0.000000
-0.033333 -0.366667 0.000000
0.066667 -0.333333 0.000000
0.133333 -0.266667 0.000000
0.200000 -0.200000 0.000000
0.266667 -0.133333 0.000000
0.333333 -0.066667 0.000000
0.033333 -0.366667 0.000000
0.100000 -0.300000 0.000000
0.166667 -0.233333 0.000000
0.233333 -0.166667 0.000000
0.300000 -0.100000 0.000000
0.366667 -0.033333 0.000000
0.318109 -1.422081 0.000000
0.579456 -1.222505 0.000000
0.771420 -0.954490 0.000000
0.900932 -0.650940 0.000000
0.975602 -0.329323 0.000000
0.163611 -1.479787 0.000000
0.457521 -1.333798 0.000000
0.683799 -1.094506 0.000000
0.843445 -0.805823 0.000000
0.944761 -0.491642 0.000000
0.993923 -0.165116 0.000000
0.975602 0.329323 0.000000
0.900932 0.650940 0.000000
0.771420 0.954490 0.000000
0.579456 1.222505 0.000000
0.318109 1.422081 0.000000
0.993923 0.165116 0.000000
0.944761 0.491642 0.000000
0.843445 0.805823 0.000000
0.683799 1.094506 0.000000
0.457521 1.333798 0.000000
0.163611 1.479787 0.000000
-0.318109 1.422081 0.000000
-0.579456 1.222505 0.000000
-0.771420 0.954490 0.000000
-0.900932 0.650940 0.000000
-0.975602 0.329323 0.000000
-0.163611 1.479787 0.000000
-0.457521 1.333798 0.000000
-0.683799 1.094506 0.000000
-0.843445 0.805823 0.000000
-0.944761 0.491642 0.000000
-0.993923 0.165116 0.000000
-0.975602 -0.329323 0.000000
-0.900932 -0.650940 0.000000
-0.771420 -0.954490 0.000000
-0.579456 -1.222505 0.000000
-0.318109 -1.422081 0.000000
-0.993923 -0.165116 0.000000
-0.944761 -0.491642 0.000000
-0.843445 -0.805823 0.000000
-0.683799 -1.094506 0.000000
-0.457521 -1.333798 0.000000
-0.163611 -1.479787 0.000000
0.000000 -1.316667 0.000000
0.000000 -1.133333 0.000000
0.000000 -0.950000 0.000000
0.000000 -0.766667 0.000000
0.000000 -0.583333 0.000000
0.000000 -1.408333 0.000000
0.000000 -1.225000 0.000000
0.000000 -1.041667 0.000000
0.000000 -0.858333 0.000000
0.000000 -0.675000 0.000000
0.000000 -0.491667 0.000000
0.900000 0.000000 0.000000
0.800000 0.000000 0.000000
0.700000 0.000000 0.000000
0.600000 0.000000 0.000000
0.500000 0.000000 0.000000
0.950000 0.000000 0.000000
0.850000 0.000000 0.000000
0.750000 0.000000 0.000000
0.650000 0.000000 0.000000
0.550000 0.000000 0.000000
0.450000 0.000000 0.000000
0.000000 1.316667 0.000000
0.000000 1.133333 0.000000
0.000000 0.950000 0.000000
0.000000 0.766667 0.000000
0.000000 0.583333 0.000000
0.000000 1.408333 0.000000
0.000000 1.225000 0.000000
0.000000 1.041667 0.000000
0.000000 0.858333 0.000000
0.000000 0.675000 0.000000
0.000000 0.491667 0.000000
-0.900000 0.000000 0.000000
-0.800000 0.000000 0.000000
-0.700000 0.000000 0.000000
-0.600000 0.000000 0.000000
-0.500000 0.000000 0.000000
-0.950000 0.000000 0.000000
-0.850000 0.000000 0.000000
-0.750000 0.000000 0.000000
-0.650000 0.000000 0.000000
-0.550000 0.000000 0.000000
-0.450000 0.000000 0.000000
0.395719 -0.864575 0.000000
0.259395 -0.559861 0.000000
0.669282 -0.470468 0.000000
0.468822 -0.302562 0.000000
0.470294 -1.024958 0.000000
0.204156 -1.007017 0.000000
0.247763 -1.189717 0.000000
0.323269 -0.707398 0.000000
0.131880 -0.665738 0.000000
0.165412 -0.833111 0.000000
0.195001 -0.411834 0.000000
0.098639 -0.498826 0.000000
0.795221 -0.564672 0.000000
0.555245 -0.685751 0.000000
0.645327 -0.806816 0.000000
0.568795 -0.386755 0.000000
0.380065 -0.445574 0.000000
0.456725 -0.556587 0.000000
0.363238 -0.216050 0.000000
0.285916 -0.319579 0.000000
0.741626 -0.237527 0.000000
0.860178 -0.284263 0.000000
0.534262 -0.151178 0.000000
0.635836 -0.193746 0.000000
0.433160 -0.108667 0.000000
0.282936 -1.305899 0.000000
0.123881 -1.253192 0.000000
0.524875 -1.123732 0.000000
0.359028 -1.107338 0.000000
0.433006 -0.944767 0.000000
0.299938 -0.935796 0.000000
0.225960 -1.098367 0.000000
0.102078 -1.070175 0.000000
0.184784 -0.920064 0.000000
0.082706 -0.891556 0.000000
0.359494 -0.785987 0.000000
0.244341 -0.770255 0.000000
0.291332 -0.633629 0.000000
0.195638 -0.612799 0.000000
0.148646 -0.749424 0.000000
0.065940 -0.716202 0.000000
0.115259 -0.582282 0.000000
0.049319 -0.541080 0.000000
0.227198 -0.485847 0.000000
0.146820 -0.455330 0.000000
0.164167 -0.339250 0.000000
0.082653 -0.416080 0.000000
0.708374 -0.880653 0.000000
0.557810 -0.915887 0.000000
0.848077 -0.607806 0.000000
0.720274 -0.685744 0.000000
0.732252 -0.517570 0.000000
0.612264 -0.578110 0.000000
0.600286 -0.746284 0.000000
0.475482 -0.775163 0.000000
0.505985 -0.621169 0.000000
0.389997 -0.631993 0.000000
0.619038 -0.428612 0.000000
0.512760 -0.471671 0.000000
0.518808 -0.344658 0.000000
0.424443 -0.374068 0.000000
0.418395 -0.501081 0.000000
0.319730 -0.502718 0.000000
0.332990 -0.382577 0.000000
0.240459 -0.365707 0.000000
0.416030 -0.259306 0.000000
0.324577 -0.267815 0.000000
0.314952 -0.174692 0.000000
0.242958 -0.259790 0.000000
0.917890 -0.306793 0.000000
0.827700 -0.424467 0.000000
0.880089 -0.142131 0.000000
0.770813 -0.118764 0.000000
0.800902 -0.260895 0.000000
0.705454 -0.353998 0.000000
0.688731 -0.215637 0.000000
0.602315 -0.290251 0.000000
0.667918 -0.096873 0.000000
0.567131 -0.075589 0.000000
0.585049 -0.172462 0.000000
0.501542 -0.226870 0.000000
0.483711 -0.129922 0.000000
0.398199 -0.162358 0.000000
0.466580 -0.054333 0.000000
0.383247 -0.087667 0.000000
0.689510 0.478404 0.000000
0.468822 0.302562 0.000000
0.396294 0.865300 0.000000
0.257800 0.558065 0.000000
0.795221 0.564672 0.000000
0.745015 0.238857 0.000000
0.860178 0.284263 0.000000
0.568839 0.386777 0.000000
0.534533 0.151292 0.000000
0.637973 0.194587 0.000000
0.363420 0.216203 0.000000
0.433226 0.108706 0.000000
0.468341 1.022695 0.000000
0.561146 0.691924 0.000000
0.647386 0.807913 0.000000
0.321648 0.705619 0.000000
0.370475 0.437175 0.000000
0.464928 0.564333 0.000000
0.194273 0.411098 0.000000
0.287201 0.320593 0.000000
0.201943 1.004577 0.000000
0.246678 1.188518 0.000000
0.130806 0.664551 0.000000
0.164251 0.831835 0.000000
0.098186 0.498329 0.000000
0.917890 0.306793 0.000000
0.880089 0.142131 0.000000
0.848077 0.607806 0.000000
0.827700 0.424467 0.000000
0.742366 0.521538 0.000000
0.717263 0.358630 0.000000
0.802597 0.261560 0.000000
0.772507 0.119428 0.000000
0.691494 0.216722 0.000000
0.668987 0.097293 0.000000
0.629175 0.432591 0.000000
0.603406 0.290682 0.000000
0.518830 0.344669 0.000000
0.501677 0.226927 0.000000
0.586253 0.172940 0.000000
0.567266 0.075646 0.000000
0.483880 0.129999 0.000000
0.466613 0.054353 0.000000
0.416121 0.259382 0.000000
0.398323 0.162455 0.000000
0.315043 0.174768 0.000000
0.383280 0.087686 0.000000
0.709403 0.881201 0.000000
0.721304 0.686292 0.000000
0.523898 1.122600 0.000000
0.557863 0.915304 0.000000
0.432317 0.943998 0.000000
0.478720 0.778612 0.000000
0.604266 0.749918 0.000000
0.625328 0.585164 0.000000
0.513037 0.628128 0.000000
0.516883 0.475555 0.000000
0.358971 0.785459 0.000000
0.393288 0.634976 0.000000
0.289724 0.631842 0.000000
0.314137 0.497620 0.000000
0.417701 0.500754 0.000000
0.419648 0.369868 0.000000
0.328838 0.378884 0.000000
0.325310 0.268398 0.000000
0.226036 0.484581 0.000000
0.240737 0.365845 0.000000
0.163803 0.338882 0.000000
0.243601 0.260297 0.000000
0.282394 1.305299 0.000000
0.357509 1.105607 0.000000
0.123339 1.252592 0.000000
0.100971 1.068955 0.000000
0.224311 1.096547 0.000000
0.299119 0.934939 0.000000
0.183097 0.918206 0.000000
0.242949 0.768727 0.000000
0.082126 0.890918 0.000000
0.065403 0.715609 0.000000
0.147529 0.748193 0.000000
0.194303 0.611308 0.000000
0.114496 0.581440 0.000000
0.146229 0.454713 0.000000
0.049093 0.540831 0.000000
0.082426 0.415831 0.000000
-0.390034 0.858069 0.000000
-0.258592 0.558961 0.000000
-0.689510 0.478404 0.000000
-0.468822 0.302562 0.000000
-0.467554 1.021673 0.000000
-0.203612 1.006383 0.000000
-0.246562 1.188338 0.000000
-0.321255 0.705049 0.000000
-0.131464 0.665265 0.000000
-0.164446 0.832004 0.000000
-0.194863 0.411679 0.000000
-0.098507 0.498678 0.000000
-0.795221 0.564672 0.000000
-0.560996 0.691029 0.000000
-0.646871 0.807178 0.000000
-0.568795 0.386755 0.000000
-0.380065 0.445574 0.000000
-0.458051 0.556986 0.000000
-0.363238 0.216050 0.000000
-0.285916 0.319579 0.000000
-0.745060 0.238879 0.000000
-0.860178 0.284263 0.000000
-0.534459 0.151255 0.000000
-0.637949 0.194576 0.000000
-0.433185 0.108677 0.000000
-0.282336 1.305210 0.000000
-0.123281 1.252502 0.000000
-0.523505 1.122089 0.000000
-0.357058 1.105006 0.000000
-0.428794 0.939871 0.000000
-0.296823 0.932226 0.000000
-0.225087 1.097361 0.000000
-0.101806 1.069858 0.000000
-0.184029 0.919194 0.000000
-0.082223 0.891002 0.000000
-0.355644 0.781559 0.000000
-0.242850 0.768527 0.000000
-0.289923 0.632005 0.000000
-0.195028 0.612113 0.000000
-0.147955 0.748634 0.000000
-0.065732 0.715966 0.000000
-0.114986 0.581972 0.000000
-0.049254 0.541006 0.000000
-0.226728 0.485320 0.000000
-0.146685 0.455179 0.000000
-0.164098 0.339173 0.000000
-0.082587 0.416006 0.000000
-0.709146 0.880834 0.000000
[...]
POINT_DATA 565
VECTORS sol double
-0.924512 -0.194424 0
+0.000004 +0.000001 0
+0.924514 +0.194424 0
-0.000003 -0.000001 0
+0.000000 +0.000000 0
+0.000000 +0.000000 0
+0.000000 +0.000000 0
+0.000000 +0.000000 0
-0.841282 -0.176921 0
-0.713804 -0.150112 0
-0.552521 -0.116194 0
-0.370352 -0.077885 0
-0.181403 -0.038149 0
-0.888947 -0.186944 0
-0.782470 -0.164552 0
-0.636602 -0.133877 0
-0.463104 -0.097390 0
-0.275763 -0.057993 0
-0.088908 -0.018697 0
+0.181408 +0.038150 0
+0.370342 +0.077882 0
+0.552524 +0.116195 0
+0.713811 +0.150114 0
+0.841283 +0.176921 0
+0.088913 +0.018698 0
+0.275766 +0.057993 0
+0.463118 +0.097393 0
+0.636598 +0.133876 0
+0.782474 +0.164553 0
+0.888949 +0.186945 0
+0.841284 +0.176921 0
+0.713805 +0.150112 0
+0.552522 +0.116195 0
+0.370353 +0.077885 0
+0.181404 +0.038149 0
+0.888948 +0.186945 0
+0.782472 +0.164553 0
+0.636603 +0.133877 0
+0.463105 +0.097390 0
+0.275764 +0.057993 0
+0.088908 +0.018697 0
-0.181406 -0.038149 0
-0.370339 -0.077882 0
-0.552522 -0.116195 0
-0.713809 -0.150113 0
-0.841281 -0.176920 0
-0.088911 -0.018698 0
-0.275763 -0.057993 0
-0.463115 -0.097393 0
-0.636596 -0.133875 0
-0.782471 -0.164553 0
-0.888947 -0.186944 0
+0.000000 +0.000000 0
+0.000000 +0.000000 0
+0.000000 +0.000000 0
+0.000000 +0.000000 0
+0.000000 +0.000000 0
+0.000000 +0.000000 0
+0.000000 +0.000000 0
+0.000000 +0.000000 0
+0.000000 +0.000000 0
+0.000000 +0.000000 0
+0.000000 +0.000000 0
+0.000000 +0.000000 0
+0.000000 +0.000000 0
+0.000000 +0.000000 0
+0.000000 +0.000000 0
+0.000000 +0.000000 0
+0.000000 +0.000000 0
+0.000000 +0.000000 0
+0.000000 +0.000000 0
+0.000000 +0.000000 0
+0.000000 +0.000000 0
+0.000000 +0.000000 0
+0.000000 +0.000000 0
+0.000000 +0.000000 0
+0.000000 +0.000000 0
+0.000000 +0.000000 0
+0.000000 +0.000000 0
+0.000000 +0.000000 0
+0.000000 +0.000000 0
+0.000000 +0.000000 0
+0.000000 +0.000000 0
+0.000000 +0.000000 0
+0.000000 +0.000000 0
+0.000000 +0.000000 0
+0.000000 +0.000000 0
+0.000000 +0.000000 0
+0.000000 +0.000000 0
+0.000000 +0.000000 0
+0.000000 +0.000000 0
+0.000000 +0.000000 0
+0.000000 +0.000000 0
+0.000000 +0.000000 0
+0.000000 +0.000000 0
+0.000000 +0.000000 0
-0.000002 -0.000000 0
-0.000001 -0.000000 0
-0.000010 -0.000002 0
-0.000003 -0.000001 0
-0.000004 -0.000001 0
-0.000001 -0.000000 0
-0.000004 -0.000001 0
-0.000005 -0.000001 0
-0.000007 -0.000002 0
-0.000003 -0.000001 0
-0.000000 -0.000000 0
-0.281739 -0.059249 0
-0.545537 -0.114726 0
-0.762274 -0.160305 0
-0.907445 -0.190835 0
-0.964075 -0.202744 0
-0.141445 -0.029746 0
-0.417890 -0.087882 0
-0.661515 -0.139116 0
-0.845054 -0.177714 0
-0.947487 -0.199255 0
-0.956293 -0.201107 0
+0.000001 +0.000000 0
-0.000002 -0.000000 0
+0.000007 +0.000002 0
-0.000003 -0.000001 0
+0.000001 +0.000000 0
-0.000001 -0.000000 0
-0.000002 -0.000000 0
-0.000001 -0.000000 0
+0.000001 +0.000000 0
-0.000001 -0.000000 0
-0.000000 -0.000000 0
+0.281732 +0.059248 0
+0.545541 +0.114727 0
+0.762275 +0.160305 0
+0.907448 +0.190835 0
+0.964075 +0.202744 0
+0.141441 +0.029745 0
+0.417905 +0.087885 0
+0.661518 +0.139116 0
+0.845050 +0.177713 0
+0.947488 +0.199255 0
+0.956294 +0.201107 0
-0.336528 -0.070771 0
-0.494506 -0.103994 0
-0.575913 -0.121114 0
-0.858619 -0.180566 0
-0.185532 -0.039017 0
-0.156952 -0.033007 0
-0.084742 -0.017821 0
-0.447934 -0.094200 0
-0.237322 -0.049909 0
-0.210673 -0.044304 0
-0.466882 -0.098185 0
-0.227263 -0.047793 0
-0.273055 -0.057423 0
-0.478590 -0.100647 0
-0.272486 -0.057303 0
-0.762875 -0.160432 0
-0.712794 -0.149900 0
-0.644541 -0.135546 0
-0.839011 -0.176443 0
-0.681424 -0.143303 0
-0.617202 -0.129797 0
-0.317971 -0.066869 0
-0.927597 -0.195072 0
-0.819679 -0.172377 0
-0.934996 -0.196628 0
-0.039899 -0.008391 0
-0.036624 -0.007702 0
-0.087711 -0.018445 0
-0.140802 -0.029611 0
-0.263231 -0.055357 0
-0.250641 -0.052709 0
-0.121689 -0.025591 0
-0.069212 -0.014555 0
-0.186816 -0.039287 0
-0.096045 -0.020198 0
-0.399158 -0.083942 0
-0.330880 -0.069584 0
-0.479696 -0.100879 0
-0.366495 -0.077074 0
-0.228093 -0.047968 0
-0.111658 -0.023482 0
-0.237228 -0.049889 0
-0.109464 -0.023020 0
-0.490337 -0.103117 0
-0.347034 -0.072981 0
-0.426881 -0.089772 0
-0.208856 -0.043922 0
-0.132015 -0.027763 0
-0.241296 -0.050744 0
-0.134496 -0.028284 0
-0.294223 -0.061875 0
-0.431494 -0.090743 0
-0.542819 -0.114154 0
-0.378932 -0.079689 0
-0.419833 -0.088290 0
-0.571974 -0.120285 0
-0.555183 -0.116754 0
-0.679095 -0.142813 0
-0.718138 -0.151023 0
-0.823653 -0.173213 0
-0.794962 -0.167180 0
-0.688000 -0.144686 0
-0.611482 -0.128594 0
-0.712022 -0.149737 0
-0.577935 -0.121539 0
-0.864571 -0.181818 0
-0.766106 -0.161111 0
-0.788836 -0.165891 0
-0.628572 -0.132188 0
-0.159264 -0.033493 0
-0.312666 -0.065753 0
-0.318824 -0.067048 0
-0.599581 -0.126091 0
-0.474561 -0.099800 0
-0.613720 -0.129065 0
-0.728439 -0.153190 0
-0.805007 -0.169292 0
-0.806328 -0.169570 0
-0.929307 -0.195432 0
-0.885509 -0.186221 0
-0.903179 -0.189937 0
-0.944184 -0.198561 0
-0.894495 -0.188111 0
-0.958088 -0.201485 0
-0.900308 -0.189334 0
-0.538050 -0.113151 0
-0.858624 -0.180568 0
-0.335941 -0.070648 0
-0.493529 -0.103788 0
-0.273075 -0.057427 0
-0.609556 -0.128189 0
-0.317966 -0.066868 0
-0.762811 -0.160418 0
-0.927439 -0.195039 0
-0.816443 -0.171697 0
-0.839160 -0.176474 0
-0.935017 -0.196633 0
-0.188031 -0.039543 0
-0.467957 -0.098411 0
-0.269193 -0.056611 0
-0.448245 -0.094265 0
-0.711640 -0.149657 0
-0.637103 -0.133982 0
-0.465672 -0.097930 0
-0.683041 -0.143643 0
-0.156854 -0.032986 0
-0.085082 -0.017893 0
-0.235974 -0.049625 0
-0.209986 -0.044160 0
-0.226390 -0.047610 0
-0.159261 -0.033492 0
-0.318831 -0.067050 0
-0.134513 -0.028288 0
-0.312659 -0.065752 0
-0.409927 -0.086207 0
-0.589097 -0.123886 0
-0.470259 -0.098895 0
-0.595555 -0.125245 0
-0.723120 -0.152071 0
-0.804521 -0.169190 0
-0.663642 -0.139563 0
-0.803577 -0.168991 0
-0.823673 -0.173217 0
-0.903129 -0.189927 0
-0.884216 -0.185949 0
-0.929193 -0.195408 0
-0.944173 -0.198558 0
-0.958091 -0.201485 0
-0.864555 -0.181815 0
-0.894571 -0.188127 0
-0.788962 -0.165918 0
-0.900336 -0.189339 0
-0.130309 -0.027404 0
-0.292150 -0.061439 0
-0.088963 -0.018709 0
-0.241789 -0.050848 0
-0.264006 -0.055520 0
-0.415514 -0.087382 0
-0.371517 -0.078130 0
-0.521470 -0.109665 0
-0.562151 -0.118220 0
-0.713115 -0.149967 0
-0.399429 -0.083999 0
-0.553756 -0.116454 0
-0.479326 -0.100802 0
-0.608945 -0.128060 0
-0.687977 -0.144681 0
-0.795708 -0.167336 0
-0.709352 -0.149176 0
-0.766842 -0.161266 0
-0.489084 -0.102854 0
-0.578409 -0.121639 0
-0.426138 -0.089616 0
-0.629677 -0.132420 0
-0.040143 -0.008442 0
-0.141948 -0.029851 0
-0.036608 -0.007699 0
-0.068794 -0.014467 0
-0.121962 -0.025648 0
-0.250911 -0.052766 0
-0.186309 -0.039181 0
-0.330544 -0.069513 0
-0.095535 -0.020091 0
-0.110881 -0.023318 0
-0.227081 -0.047755 0
-0.365192 -0.076799 0
-0.236013 -0.049633 0
-0.345970 -0.072757 0
-0.109001 -0.022923 0
-0.208344 -0.043814 0
+0.341756 +0.071871 0
+0.494007 +0.103889 0
+0.538045 +0.113150 0
+0.858618 +0.180566 0
+0.189124 +0.039773 0
+0.156952 +0.033007 0
+0.085120 +0.017901 0
+0.448452 +0.094309 0
+0.236803 +0.049799 0
+0.210106 +0.044185 0
+0.466674 +0.098141 0
+0.227009 +0.047740 0
+0.273073 +0.057427 0
+0.469022 +0.098635 0
+0.270481 +0.056882 0
+0.762867 +0.160430 0
+0.712801 +0.149901 0
+0.644198 +0.135474 0
+0.839013 +0.176443 0
+0.681430 +0.143304 0
+0.609454 +0.128167 0
+0.317969 +0.066868 0
+0.927486 +0.195049 0
+0.816479 +0.171704 0
+0.935009 +0.196631 0
+0.040174 +0.008449 0
+0.036609 +0.007699 0
+0.089513 +0.018824 0
+0.142362 +0.029939 0
+0.268089 +0.056379 0
+0.251912 +0.052977 0
+0.121855 +0.025626 0
+0.069105 +0.014533 0
+0.186618 +0.039246 0
+0.095627 +0.020110 0
+0.401546 +0.084445 0
+0.330572 +0.069519 0
+0.479469 +0.100832 0
+0.365909 +0.076950 0
+0.227475 +0.047838 0
+0.111354 +0.023418 0
+0.236798 +0.049798 0
+0.109329 +0.022992 0
+0.489826 +0.103010 0
+0.346801 +0.072932 0
+0.426748 +0.089744 0
+0.208711 +0.043892 0
+0.130930 +0.027534 0
+0.243026 +0.051108 0
+0.134513 +0.028288 0
+0.292888 +0.061594 0
+0.409927 +0.086207 0
+0.522013 +0.109779 0
+0.372673 +0.078373 0
+0.420443 +0.088419 0
+0.567756 +0.119398 0
+0.555955 +0.116917 0
+0.663698 +0.139575 0
+0.717766 +0.150945 0
+0.823655 +0.173214 0
+0.794968 +0.167181 0
+0.688082 +0.144703 0
+0.611376 +0.128572 0
+0.712023 +0.149738 0
+0.577845 +0.121520 0
+0.864573 +0.181819 0
+0.766110 +0.161112 0
+0.788839 +0.165892 0
+0.628576 +0.132189 0
+0.159262 +0.033493 0
+0.312660 +0.065752 0
+0.318832 +0.067050 0
+0.595501 +0.125233 0
+0.470198 +0.098882 0
+0.589049 +0.123876 0
+0.723097 +0.152066 0
+0.803620 +0.169000 0
+0.804542 +0.169194 0
+0.929225 +0.195415 0
+0.884276 +0.185962 0
+0.903147 +0.189931 0
+0.944179 +0.198560 0
+0.894507 +0.188114 0
+0.958092 +0.201485 0
+0.900321 +0.189336 0
+0.538048 +0.113151 0
+0.858624 +0.180567 0
+0.335937 +0.070647 0
+0.493526 +0.103788 0
+0.273074 +0.057427 0
+0.609559 +0.128189 0
+0.317967 +0.066868 0
+0.762810 +0.160418 0
+0.927438 +0.195039 0
+0.816442 +0.171697 0
+0.839160 +0.176474 0
+0.935018 +0.196633 0
+0.188028 +0.039542 0
+0.467954 +0.098410 0
+0.269192 +0.056611 0
+0.448241 +0.094264 0
+0.711638 +0.149657 0
+0.637101 +0.133981 0
+0.465671 +0.097930 0
+0.683041 +0.143643 0
+0.156849 +0.032985 0
+0.085078 +0.017892 0
+0.235969 +0.049624 0
+0.209980 +0.044159 0
+0.226389 +0.047609 0
+0.159261 +0.033492 0
+0.318831 +0.067050 0
+0.134513 +0.028288 0
+0.312659 +0.065752 0
+0.409926 +0.086207 0
+0.589096 +0.123886 0
+0.470256 +0.098894 0
+0.595555 +0.125245 0
+0.723121 +0.152071 0
+0.804522 +0.169190 0
+0.663641 +0.139563 0
+0.803577 +0.168991 0
+0.823672 +0.173217 0
+0.903129 +0.189927 0
+0.884217 +0.185950 0
+0.929194 +0.195408 0
+0.944174 +0.198558 0
+0.958092 +0.201486 0
+0.864555 +0.181815 0
+0.894571 +0.188127 0
+0.788963 +0.165918 0
+0.900337 +0.189340 0
+0.130308 +0.027404 0
+0.292148 +0.061438 0
+0.088961 +0.018708 0
+0.241787 +0.050848 0
+0.264002 +0.055519 0
+0.415510 +0.087381 0
+0.371515 +0.078129 0
+0.521468 +0.109664 0
+0.562148 +0.118219 0
+0.713113 +0.149967 0
+0.399425 +0.083999 0
+0.553752 +0.116453 0
+0.479322 +0.100801 0
+0.608943 +0.128060 0
+0.687974 +0.144680 0
+0.795707 +0.167336 0
+0.709351 +0.149176 0
+0.766842 +0.161266 0
+0.489082 +0.102853 0
+0.578408 +0.121639 0
+0.426138 +0.089616 0
+0.629677 +0.132420 0
+0.040141 +0.008442 0
+0.141945 +0.029851 0
+0.036605 +0.007698 0
+0.068790 +0.014466 0
+0.121958 +0.025648 0
+0.250906 +0.052765 0
+0.186304 +0.039180 0
+0.330539 +0.069512 0
+0.095530 +0.020090 0
+0.110876 +0.023317 0
+0.227076 +0.047754 0
+0.365189 +0.076799 0
+0.236010 +0.049633 0
+0.345968 +0.072757 0
+0.108999 +0.022922 0
+0.208343 +0.043814 0
+0.000001 +0.000000 0
+0.400467 +0.084218 0
-0.400464 -0.084217 0
+0.000001 +0.000000 0
-0.196193 -0.041259 0
+0.196192 +0.041259 0
-0.000000 -0.000000 0
+0.203964 +0.042893 0
+0.574741 +0.120867 0
+0.392737 +0.082592 0
+0.574741 +0.120867 0
+0.728198 +0.153139 0
-0.574738 -0.120867 0
-0.203962 -0.042893 0
-0.392736 -0.082592 0
-0.203961 -0.042893 0
+0.203964 +0.042893 0
+0.000001 +0.000000 0
+0.196195 +0.041260 0
+0.392739 +0.082593 0
-0.574739 -0.120867 0
-0.728196 -0.153139 0
-0.196190 -0.041259 0
-0.392735 -0.082592 0
+0.000002 +0.000000 0
-0.093409 -0.019644 0
+0.093409 +0.019644 0
-0.286862 -0.060327 0
-0.097138 -0.020428 0
-0.100002 -0.021030 0
+0.100003 +0.021030 0
+0.097139 +0.020428 0
+0.286866 +0.060328 0
+0.295380 +0.062118 0
+0.477051 +0.100323 0
+0.101958 +0.021442 0
+0.301164 +0.063334 0
+0.304099 +0.063952 0
+0.491257 +0.103311 0
+0.486485 +0.102307 0
+0.649402 +0.136568 0
+0.655860 +0.137927 0
+0.790438 +0.166228 0
+0.491257 +0.103311 0
+0.655861 +0.137927 0
+0.649405 +0.136569 0
+0.790438 +0.166228 0
-0.477050 -0.100323 0
-0.295378 -0.062118 0
-0.649402 -0.136568 0
-0.486485 -0.102307 0
-0.491254 -0.103310 0
-0.304097 -0.063951 0
-0.301163 -0.063334 0
-0.101956 -0.021441 0
-0.102946 -0.021649 0
+0.102948 +0.021650 0
-0.304097 -0.063951 0
-0.102946 -0.021649 0
-0.101955 -0.021441 0
+0.101959 +0.021442 0
+0.102948 +0.021650 0
+0.304100 +0.063952 0
+0.301166 +0.063335 0
+0.486488 +0.102308 0
+0.100005 +0.021031 0
+0.295380 +0.062118 0
+0.286865 +0.060327 0
+0.477053 +0.100324 0
-0.790436 -0.166228 0
-0.655859 -0.137926 0
-0.790436 -0.166228 0
-0.649401 -0.136568 0
-0.655858 -0.137926 0
-0.491254 -0.103310 0
-0.486484 -0.102307 0
-0.301162 -0.063334 0
-0.477050 -0.100323 0
-0.286865 -0.060327 0
-0.295378 -0.062118 0
-0.100000 -0.021030 0
-0.097137 -0.020428 0
+0.097141 +0.020429 0
-0.093408 -0.019644 0
+0.093411 +0.019644 0
