# vtk DataFile Version 2.0
MyTitle
ASCII
DATASET UNSTRUCTURED_GRID
POINTS 565 double
0.400000 0.000000 0.000000
0.000000 0.400000 0.000000
-0.400000 0.000000 0.000000
0.000000 -0.400000 0.000000
0.000000 -1.500000 0.000000
1.000000 0.000000 0.000000
0.000000 1.500000 0.000000
-1.000000 0.000000 0.000000
0.333333 0.066667 0.000000
0.266667 0.133333 0.000000
0.200000 0.200000 0.000000
0.133333 0.266667 0.000000
0.066667 0.333333 0.000000
0.366667 0.033333 0.000000
0.300000 0.100000 0.000000
0.233333 0.166667 0.000000
0.166667 0.233333 0.000000
0.100000 0.300000 0.000000
0.033333 0.366667 0.000000
-0.066667 0.333333 0.000000
-0.133333 0.266667 0.000000
-0.200000 0.200000 0.000000
-0.266667 0.133333 0.000000
-0.333333 0.066667 0.000000
-0.033333 0.366667 0.000000
-0.100000 0.300000 0.000000
-0.166667 0.233333 0.000000
-0.233333 0.166667 0.000000
-0.300000 0.100000 0.000000
-0.366667 0.033333 0.000000
-0.333333 -0.066667 0.000000
-0.266667 -0.133333 0.000000
-0.200000 -0.200000 0.000000
-0.133333 -0.266667 0.000000
-0.066667 -0.333333 0.000000
-0.366667 -0.033333 0.000000
-0.300000 -0.100000 0.000000
-0.233333 -0.166667 0.000000
-0.166667 -0.233333 0.000000
-0.100000 -0.300000 0.000000
-0.033333 -0.366667 0.000000
0.066667 -0.333333 0.000000
0.133333 -0.266667 0.000000
0.200000 -0.200000 0.000000
0.266667 -0.133333 0.000000
0.333333 -0.066667 0.000000
0.033333 -0.366667 0.000000
0.100000 -0.300000 0.000000
0.166667 -0.233333 0.000000
0.233333 -0.166667 0.000000
0.300000 -0.100000 0.000000
0.366667 -0.033333 0.000000
0.318109 -1.422081 0.000000
0.579456 -1.222505 0.000000
0.771420 -0.954490 0.000000
0.900932 -0.650940 0.000000
0.975602 -0.329323 0.000000
0.163611 -1.479787 0.000000
0.457521 -1.333798 0.000000
0.683799 -1.094506 0.000000
0.843445 -0.805823 0.000000
0.944761 -0.491642 0.000000
0.993923 -0.165116 0.000000
0.975602 0.329323 0.000000
0.900932 0.650940 0.000000
0.771420 0.954490 0.000000
0.579456 1.222505 0.000000
0.318109 1.422081 0.000000
0.993923 0.165116 0.000000
0.944761 0.491642 0.000000
0.843445 0.805823 0.000000
0.683799 1.094506 0.000000
0.457521 1.333798 0.000000
0.163611 1.479787 0.000000
-0.318109 1.422081 0.000000
-0.579456 1.222505 0.000000
-0.771420 0.954490 0.000000
-0.900932 0.650940 0.000000
-0.975602 0.329323 0.000000
-0.163611 1.479787 0.000000
-0.457521 1.333798 0.000000
-0.683799 1.094506 0.000000
-0.843445 0.805823 0.000000
-0.944761 0.491642 0.000000
-0.993923 0.165116 0.000000
-0.975602 -0.329323 0.000000
-0.900932 -0.650940 0.000000
-0.771420 -0.954490 0.000000
-0.579456 -1.222505 0.000000
-0.318109 -1.422081 0.000000
-0.993923 -0.165116 0.000000
-0.944761 -0.491642 0.000000
-0.843445 -0.805823 0.000000
-0.683799 -1.094506 0.000000
-0.457521 -1.333798 0.000000
-0.163611 -1.479787 0.000000
0.000000 -1.316667 0.000000
0.000000 -1.133333 0.000000
0.000000 -0.950000 0.000000
0.000000 -0.766667 0.000000
0.000000 -0.583333 0.000000
0.000000 -1.408333 0.000000
0.000000 -1.225000 0.000000
0.000000 -1.041667 0.000000
0.000000 -0.858333 0.000000
0.000000 -0.675000 0.000000
0.000000 -0.491667 0.000000
0.900000 0.000000 0.000000
0.800000 0.000000 0.000000
0.700000 0.000000 0.000000
0.600000 0.000000 0.000000
0.500000 0.000000 0.000000
0.950000 0.000000 0.000000
0.850000 0.000000 0.000000
0.750000 0.000000 0.000000
0.650000 0.000000 0.000000
0.550000 0.000000 0.000000
0.450000 0.000000 0.000000
0.000000 1.316667 0.000000
0.000000 1.133333 0.000000
0.000000 0.950000 0.000000
0.000000 0.766667 0.000000
0.000000 0.583333 0.000000
0.000000 1.408333 0.000000
0.000000 1.225000 0.000000
0.000000 1.041667 0.000000
0.000000 0.858333 0.000000
0.000000 0.675000 0.000000
0.000000 0.491667 0.000000
-0.900000 0.000000 0.000000
-0.800000 0.000000 0.000000
-0.700000 0.000000 0.000000
-0.600000 0.000000 0.000000
-0.500000 0.000000 0.000000
-0.950000 0.000000 0.000000
-0.850000 0.000000 0.000000
-0.750000 0.000000 0.000000
-0.650000 0.000000 0.000000
-0.550000 0.000000 0.000000
-0.450000 0.000000 0.000000
0.395719 -0.864575 0.000000
0.259395 -0.559861 0.000000
0.669282 -0.470468 0.000000
0.468822 -0.302562 0.000000
0.470294 -1.024958 0.000000
0.204156 -1.007017 0.000000
0.247763 -1.189717 0.000000
0.323269 -0.707398 0.000000
0.131880 -0.665738 0.000000
0.165412 -0.833111 0.000000
0.195001 -0.411834 0.000000
0.098639 -0.498826 0.000000
0.795221 -0.564672 0.000000
0.555245 -0.685751 0.000000
0.645327 -0.806816 0.000000
0.568795 -0.386755 0.000000
0.380065 -0.445574 0.000000
0.456725 -0.556587 0.000000
0.363238 -0.216050 0.000000
0.285916 -0.319579 0.000000
0.741626 -0.237527 0.000000
0.860178 -0.284263 0.000000
0.534262 -0.151178 0.000000
0.635836 -0.193746 0.000000
0.433160 -0.108667 0.000000
0.282936 -1.305899 0.000000
0.123881 -1.253192 0.000000
0.524875 -1.123732 0.000000
0.359028 -1.107338 0.000000
0.433006 -0.944767 0.000000
0.299938 -0.935796 0.000000
0.225960 -1.098367 0.000000
0.102078 -1.070175 0.000000
0.184784 -0.920064 0.000000
0.082706 -0.891556 0.000000
0.359494 -0.785987 0.000000
0.244341 -0.770255 0.000000
0.291332 -0.633629 0.000000
0.195638 -0.612799 0.000000
0.148646 -0.749424 0.000000
0.065940 -0.716202 0.000000
0.115259 -0.582282 0.000000
0.049319 -0.541080 0.000000
0.227198 -0.485847 0.000000
0.146820 -0.455330 0.000000
0.164167 -0.339250 0.000000
0.082653 -0.416080 0.000000
0.708374 -0.880653 0.000000
0.557810 -0.915887 0.000000
0.848077 -0.607806 0.000000
0.720274 -0.685744 0.000000
0.732252 -0.517570 0.000000
0.612264 -0.578110 0.000000
0.600286 -0.746284 0.000000
0.475482 -0.775163 0.000000
0.505985 -0.621169 0.000000
0.389997 -0.631993 0.000000
0.619038 -0.428612 0.000000
0.512760 -0.471671 0.000000
0.518808 -0.344658 0.000000
0.424443 -0.374068 0.000000
0.418395 -0.501081 0.000000
0.319730 -0.502718 0.000000
0.332990 -0.382577 0.000000
0.240459 -0.365707 0.000000
0.416030 -0.259306 0.000000
0.324577 -0.267815 0.000000
0.314952 -0.174692 0.000000
0.242958 -0.259790 0.000000
0.917890 -0.306793 0.000000
0.827700 -0.424467 0.000000
0.880089 -0.142131 0.000000
0.770813 -0.118764 0.000000
0.800902 -0.260895 0.000000
0.705454 -0.353998 0.000000
0.688731 -0.215637 0.000000
0.602315 -0.290251 0.000000
0.667918 -0.096873 0.000000
0.567131 -0.075589 0.000000
0.585049 -0.172462 0.000000
0.501542 -0.226870 0.000000
0.483711 -0.129922 0.000000
0.398199 -0.162358 0.000000
0.466580 -0.054333 0.000000
0.383247 -0.087667 0.000000
0.689510 0.478404 0.000000
0.468822 0.302562 0.000000
0.396294 0.865300 0.000000
0.257800 0.558065 0.000000
0.795221 0.564672 0.000000
0.745015 0.238857 0.000000
0.860178 0.284263 0.000000
0.568839 0.386777 0.000000
0.534533 0.151292 0.000000
0.637973 0.194587 0.000000
0.363420 0.216203 0.000000
0.433226 0.108706 0.000000
0.468341 1.022695 0.000000
0.561146 0.691924 0.000000
0.647386 0.807913 0.000000
0.321648 0.705619 0.000000
0.370475 0.437175 0.000000
0.464928 0.564333 0.000000
0.194273 0.411098 0.000000
0.287201 0.320593 0.000000
0.201943 1.004577 0.000000
0.246678 1.188518 0.000000
0.130806 0.664551 0.000000
0.164251 0.831835 0.000000
0.098186 0.498329 0.000000
0.917890 0.306793 0.000000
0.880089 0.142131 0.000000
0.848077 0.607806 0.000000
0.827700 0.424467 0.000000
0.742366 0.521538 0.000000
0.717263 0.358630 0.000000
0.802597 0.261560 0.000000
0.772507 0.119428 0.000000
0.691494 0.216722 0.000000
0.668987 0.097293 0.000000
0.629175 0.432591 0.000000
0.603406 0.290682 0.000000
0.518830 0.344669 0.000000
0.501677 0.226927 0.000000
0.586253 0.172940 0.000000
0.567266 0.075646 0.000000
0.483880 0.129999 0.000000
0.466613 0.054353 0.000000
0.416121 0.259382 0.000000
0.398323 0.162455 0.000000
0.315043 0.174768 0.000000
0.383280 0.087686 0.000000
0.709403 0.881201 0.000000
0.721304 0.686292 0.000000
0.523898 1.122600 0.000000
0.557863 0.915304 0.000000
0.432317 0.943998 0.000000
0.478720 0.778612 0.000000
0.604266 0.749918 0.000000
0.625328 0.585164 0.000000
0.513037 0.628128 0.000000
0.516883 0.475555 0.000000
0.358971 0.785459 0.000000
0.393288 0.634976 0.000000
0.289724 0.631842 0.000000
0.314137 0.497620 0.000000
0.417701 0.500754 0.000000
0.419648 0.369868 0.000000
0.328838 0.378884 0.000000
0.325310 0.268398 0.000000
0.226036 0.484581 0.000000
0.240737 0.365845 0.000000
0.163803 0.338882 0.000000
0.243601 0.260297 0.000000
0.282394 1.305299 0.000000
0.357509 1.105607 0.000000
0.123339 1.252592 0.000000
0.100971 1.068955 0.000000
0.224311 1.096547 0.000000
0.299119 0.934939 0.000000
0.183097 0.918206 0.000000
0.242949 0.768727 0.000000
0.082126 0.890918 0.000000
0.065403 0.715609 0.000000
0.147529 0.748193 0.000000
0.194303 0.611308 0.000000
0.114496 0.581440 0.000000
0.146229 0.454713 0.000000
0.049093 0.540831 0.000000
0.082426 0.415831 0.000000
-0.390034 0.858069 0.000000
-0.258592 0.558961 0.000000
-0.689510 0.478404 0.000000
-0.468822 0.302562 0.000000
-0.467554 1.021673 0.000000
-0.203612 1.006383 0.000000
-0.246562 1.188338 0.000000
-0.321255 0.705049 0.000000
-0.131464 0.665265 0.000000
-0.164446 0.832004 0.000000
-0.194863 0.411679 0.000000
-0.098507 0.498678 0.000000
-0.795221 0.564672 0.000000
-0.560996 0.691029 0.000000
-0.646871 0.807178 0.000000
-0.568795 0.386755 0.000000
-0.380065 0.445574 0.000000
-0.458051 0.556986 0.000000
-0.363238 0.216050 0.000000
-0.285916 0.319579 0.000000
-0.745060 0.238879 0.000000
-0.860178 0.284263 0.000000
-0.534459 0.151255 0.000000
-0.637949 0.194576 0.000000
-0.433185 0.108677 0.000000
-0.282336 1.305210 0.000000
-0.123281 1.252502 0.000000
-0.523505 1.122089 0.000000
-0.357058 1.105006 0.000000
-0.428794 0.939871 0.000000
-0.296823 0.932226 0.000000
-0.225087 1.097361 0.000000
-0.101806 1.069858 0.000000
-0.184029 0.919194 0.000000
-0.082223 0.891002 0.000000
-0.355644 0.781559 0.000000
-0.242850 0.768527 0.000000
-0.289923 0.632005 0.000000
-0.195028 0.612113 0.000000
-0.147955 0.748634 0.000000
-0.065732 0.715966 0.000000
-0.114986 0.581972 0.000000
-0.049254 0.541006 0.000000
-0.226728 0.485320 0.000000
-0.146685 0.455179 0.000000
-0.164098 0.339173 0.000000
-0.082587 0.416006 0.000000
-0.709146 0.880834 0.000000
[...]
POINT_DATA 565
VECTORS sol double
+0.090804 -0.709756 0
+0.100871 -0.788445 0
+0.090804 -0.709756 0
+0.100871 -0.788445 0
+0.000000 +0.000000 0
+0.000000 +0.000000 0
+0.000000 +0.000000 0
+0.000000 +0.000000 0
+0.097325 -0.760728 0
+0.102007 -0.797325 0
+0.104735 -0.818648 0
+0.105449 -0.824225 0
+0.104144 -0.814026 0
+0.094283 -0.736948 0
+0.099903 -0.780874 0
+0.103619 -0.809921 0
+0.105343 -0.823399 0
+0.105044 -0.821063 0
+0.102745 -0.803095 0
+0.104144 -0.814027 0
+0.105449 -0.824224 0
+0.104735 -0.818647 0
+0.102007 -0.797325 0
+0.097325 -0.760728 0
+0.102745 -0.803094 0
+0.105044 -0.821063 0
+0.105343 -0.823400 0
+0.103619 -0.809921 0
+0.099903 -0.780874 0
+0.094283 -0.736948 0
+0.097325 -0.760728 0
+0.102007 -0.797325 0
+0.104735 -0.818649 0
+0.105449 -0.824225 0
+0.104144 -0.814026 0
+0.094283 -0.736948 0
+0.099903 -0.780874 0
+0.103619 -0.809921 0
+0.105343 -0.823399 0
+0.105044 -0.821063 0
+0.102746 -0.803095 0
+0.104144 -0.814027 0
+0.105449 -0.824224 0
+0.104735 -0.818647 0
+0.102007 -0.797325 0
+0.097325 -0.760727 0
+0.102745 -0.803094 0
+0.105044 -0.821063 0
+0.105343 -0.823400 0
+0.103619 -0.809921 0
+0.099903 -0.780873 0
+0.094283 -0.736948 0
+0.000000 +0.000000 0
+0.000000 +0.000000 0
+0.000000 +0.000000 0
+0.000000 +0.000000 0
+0.000000 +0.000000 0
+0.000000 +0.000000 0
+0.000000 +0.000000 0
+0.000000 +0.000000 0
+0.000000 +0.000000 0
+0.000000 +0.000000 0
+0.000000 +0.000000 0
+0.000000 +0.000000 0
+0.000000 +0.000000 0
+0.000000 +0.000000 0
+0.000000 +0.000000 0
+0.000000 +0.000000 0
+0.000000 +0.000000 0
+0.000000 +0.000000 0
+0.000000 +0.000000 0
+0.000000 +0.000000 0
+0.000000 +0.000000 0
+0.000000 +0.000000 0
+0.000000 +0.000000 0
+0.000000 +0.000000 0
+0.000000 +0.000000 0
+0.000000 +0.000000 0
+0.000000 +0.000000 0
+0.000000 +0.000000 0
+0.000000 +0.000000 0
+0.000000 +0.000000 0
+0.000000 +0.000000 0
+0.000000 +0.000000 0
+0.000000 +0.000000 0
+0.000000 +0.000000 0
+0.000000 +0.000000 0
+0.000000 +0.000000 0
+0.000000 +0.000000 0
+0.000000 +0.000000 0
+0.000000 +0.000000 0
+0.000000 +0.000000 0
+0.000000 +0.000000 0
+0.000000 +0.000000 0
+0.000000 +0.000000 0
+0.000000 +0.000000 0
+0.014961 -0.116944 0
+0.032551 -0.254431 0
+0.051495 -0.402503 0
+0.070231 -0.548951 0
+0.087185 -0.681471 0
+0.007034 -0.054979 0
+0.023509 -0.183758 0
+0.041959 -0.327964 0
+0.060995 -0.476756 0
+0.079034 -0.617756 0
+0.094523 -0.738824 0
+0.016411 -0.128274 0
+0.033014 -0.258050 0
+0.049276 -0.385155 0
+0.064658 -0.505386 0
+0.078655 -0.614794 0
+0.008149 -0.063698 0
+0.024725 -0.193260 0
+0.041223 -0.322211 0
+0.057108 -0.446377 0
+0.071858 -0.561665 0
+0.084984 -0.664265 0
+0.014961 -0.116942 0
+0.032551 -0.254432 0
+0.051495 -0.402504 0
+0.070231 -0.548951 0
+0.087185 -0.681471 0
+0.007034 -0.054979 0
+0.023509 -0.183758 0
+0.041959 -0.327963 0
+0.060995 -0.476756 0
+0.079034 -0.617756 0
+0.094523 -0.738823 0
+0.016411 -0.128272 0
+0.033014 -0.258052 0
+0.049275 -0.385155 0
+0.064658 -0.505386 0
+0.078655 -0.614794 0
+0.008149 -0.063697 0
+0.024726 -0.193264 0
+0.041223 -0.322212 0
+0.057108 -0.446376 0
+0.071858 -0.561665 0
+0.084984 -0.664265 0
+0.043717 -0.341705 0
+0.080326 -0.627858 0
+0.041466 -0.324110 0
+0.076163 -0.595314 0
+0.023605 -0.184505 0
+0.041472 -0.324157 0
+0.021993 -0.171907 0
+0.063446 -0.495915 0
+0.077696 -0.607301 0
+0.060474 -0.472683 0
+0.094780 -0.740835 0
+0.092654 -0.724220 0
+0.018739 -0.146473 0
+0.042782 -0.334402 0
+0.023668 -0.184999 0
+0.059545 -0.465425 0
+0.078423 -0.612984 0
+0.063129 -0.493437 0
+0.091147 -0.712434 0
+0.093878 -0.733782 0
+0.039497 -0.308723 0
+0.019342 -0.151183 0
+0.072476 -0.566500 0
+0.056944 -0.445096 0
+0.086132 -0.673236 0
+0.010305 -0.080550 0
+0.019632 -0.153448 0
+0.011247 -0.087911 0
+0.024063 -0.188082 0
+0.033558 -0.262305 0
+0.043759 -0.342034 0
+0.031560 -0.246684 0
+0.038038 -0.297319 0
+0.051005 -0.398674 0
+0.056821 -0.444136 0
+0.053678 -0.419564 0
+0.062901 -0.491655 0
+0.072125 -0.563758 0
+0.079713 -0.623065 0
+0.069282 -0.541533 0
+0.074610 -0.583178 0
+0.085524 -0.668484 0
+0.090351 -0.706219 0
+0.087934 -0.687322 0
+0.094173 -0.736087 0
+0.100584 -0.786201 0
+0.098867 -0.772776 0
+0.011477 -0.089704 0
+0.024821 -0.194011 0
+0.009215 -0.072028 0
+0.022392 -0.175026 0
+0.030099 -0.235261 0
+0.043108 -0.336949 0
+0.033186 -0.259394 0
+0.044348 -0.346636 0
+0.053094 -0.414998 0
+0.064175 -0.501617 0
+0.050629 -0.395730 0
+0.062173 -0.485963 0
+0.068086 -0.532187 0
+0.077908 -0.608959 0
+0.070980 -0.554805 0
+0.080078 -0.625918 0
+0.086573 -0.676688 0
+0.094778 -0.740819 0
+0.084021 -0.656736 0
+0.092921 -0.726305 0
+0.096969 -0.757947 0
+0.099775 -0.779876 0
+0.009576 -0.074850 0
+0.020007 -0.156380 0
+0.018814 -0.147055 0
+0.037073 -0.289774 0
+0.029452 -0.230204 0
+0.041368 -0.323346 0
+0.048342 -0.377854 0
+0.058962 -0.460865 0
+0.053763 -0.420230 0
+0.069050 -0.539718 0
+0.064900 -0.507281 0
+0.074850 -0.585052 0
+0.079560 -0.621872 0
+0.089010 -0.695731 0
+0.082724 -0.646600 0
+0.092037 -0.719391 0
+0.038184 -0.298460 0
+0.076162 -0.595307 0
+0.043605 -0.340833 0
+0.080572 -0.629782 0
+0.018741 -0.146483 0
+0.038928 -0.304272 0
+0.019342 -0.151183 0
+0.059539 -0.465381 0
+0.072437 -0.566193 0
+0.056603 -0.442427 0
+0.091124 -0.712255 0
+0.086123 -0.673172 0
+0.023953 -0.187226 0
+0.041653 -0.325578 0
+0.023354 -0.182545 0
+0.063724 -0.498090 0
+0.079876 -0.624336 0
+0.061694 -0.482223 0
+0.094866 -0.741506 0
+0.093725 -0.732589 0
+0.041804 -0.326754 0
+0.022147 -0.173109 0
+0.077839 -0.608419 0
+0.060643 -0.474011 0
+0.092704 -0.724607 0
+0.009576 -0.074850 0
+0.018814 -0.147056 0
+0.009216 -0.072032 0
+0.020006 -0.156377 0
+0.028447 -0.222349 0
+0.039402 -0.307983 0
+0.029163 -0.227947 0
+0.036788 -0.287552 0
+0.047887 -0.374299 0
+0.053592 -0.418894 0
+0.049019 -0.383149 0
+0.058790 -0.459527 0
+0.068083 -0.532162 0
+0.074830 -0.584901 0
+0.064716 -0.505840 0
+0.069030 -0.539562 0
+0.079538 -0.621693 0
+0.082720 -0.646566 0
+0.084008 -0.656636 0
+0.088994 -0.695607 0
+0.096959 -0.757867 0
+0.092033 -0.719362 0
+0.011325 -0.088524 0
+0.022225 -0.173719 0
+0.011410 -0.089187 0
+0.024862 -0.194329 0
+0.033682 -0.263271 0
+0.043746 -0.341933 0
+0.032463 -0.253744 0
+0.040975 -0.320272 0
+0.051795 -0.404849 0
+0.061439 -0.480229 0
+0.053766 -0.420255 0
+0.063635 -0.497395 0
+0.072389 -0.565821 0
+0.080896 -0.632313 0
+0.071073 -0.555533 0
+0.078652 -0.614769 0
+0.087150 -0.681198 0
+0.092831 -0.725599 0
+0.088095 -0.688583 0
+0.094752 -0.740614 0
+0.100621 -0.786488 0
+0.099709 -0.779362 0
+0.010376 -0.081104 0
+0.024309 -0.190010 0
+0.019698 -0.153964 0
+0.038184 -0.298456 0
+0.031803 -0.248584 0
+0.043890 -0.343063 0
+0.051258 -0.400648 0
+0.063123 -0.493391 0
+0.056897 -0.444730 0
+0.074675 -0.583688 0
+0.069440 -0.542767 0
+0.079906 -0.624573 0
+0.085617 -0.669215 0
+0.094239 -0.736608 0
+0.090375 -0.706399 0
+0.098888 -0.772944 0
+0.044758 -0.349845 0
+0.080450 -0.628827 0
+0.038184 -0.298460 0
+0.076163 -0.595314 0
+0.024102 -0.188391 0
+0.041557 -0.324821 0
+0.022168 -0.173275 0
+0.063802 -0.498702 0
+0.077753 -0.607743 0
+0.060619 -0.473823 0
+0.094797 -0.740969 0
+0.092669 -0.724333 0
+0.018741 -0.146483 0
+0.041735 -0.326214 0
+0.023465 -0.183410 0
+0.059546 -0.465430 0
+0.078424 -0.612986 0
+0.062957 -0.492096 0
+0.091147 -0.712435 0
+0.093878 -0.733783 0
+0.038920 -0.304212 0
+0.019342 -0.151183 0
+0.072448 -0.566278 0
+0.056607 -0.442457 0
+0.086129 -0.673213 0
+0.010386 -0.081181 0
+0.019707 -0.154038 0
+0.011480 -0.089732 0
+0.024391 -0.190646 0
+0.034331 -0.268340 0
+0.044289 -0.346179 0
+0.031693 -0.247722 0
+0.038075 -0.297611 0
+0.051122 -0.399591 0
+0.056887 -0.444649 0
+0.054376 -0.425021 0
+0.063147 -0.493581 0
+0.072362 -0.565605 0
+0.079802 -0.623758 0
+0.069382 -0.542318 0
+0.074636 -0.583380 0
+0.085558 -0.668752 0
+0.090358 -0.706272 0
+0.088000 -0.687840 0
+0.094189 -0.736212 0
+0.100591 -0.786258 0
+0.098873 -0.772825 0
+0.011378 -0.088936 0
+0.024995 -0.195369 0
+0.009216 -0.072033 0
+0.022281 -0.174153 0
+0.028447 -0.222348 0
+0.041012 -0.320565 0
+0.032560 -0.254503 0
+0.044395 -0.347009 0
+0.052490 -0.410277 0
+0.064284 -0.502468 0
+0.049023 -0.383177 0
+0.062081 -0.485243 0
+0.068087 -0.532190 0
+0.077908 -0.608960 0
+0.070898 -0.554164 0
+0.080143 -0.626425 0
+0.086573 -0.676689 0
+0.094787 -0.740889 0
+0.084021 -0.656737 0
+0.092921 -0.726306 0
+0.096969 -0.757947 0
+0.099775 -0.779877 0
+0.009576 -0.074850 0
+0.020006 -0.156376 0
+0.018814 -0.147056 0
+0.036785 -0.287522 0
+0.029159 -0.227916 0
+0.039398 -0.307952 0
+0.047885 -0.374284 0
+0.058796 -0.459569 0
+0.053594 -0.418909 0
+0.069035 -0.539604 0
+0.064723 -0.505900 0
+0.074836 -0.584943 0
+0.079545 -0.621755 0
+0.089008 -0.695719 0
+0.082722 -0.646587 0
+0.092035 -0.719380 0
+0.038184 -0.298460 0
+0.076162 -0.595308 0
+0.043605 -0.340833 0
+0.080572 -0.629782 0
+0.018741 -0.146483 0
+0.038928 -0.304273 0
+0.019342 -0.151183 0
+0.059539 -0.465381 0
+0.072437 -0.566193 0
+0.056603 -0.442427 0
+0.091124 -0.712255 0
+0.086123 -0.673172 0
+0.023953 -0.187226 0
+0.041653 -0.325578 0
+0.023354 -0.182545 0
+0.063724 -0.498090 0
+0.079876 -0.624336 0
+0.061694 -0.482223 0
+0.094866 -0.741506 0
+0.093725 -0.732589 0
+0.041804 -0.326754 0
+0.022147 -0.173109 0
+0.077839 -0.608419 0
+0.060643 -0.474011 0
+0.092704 -0.724607 0
+0.009576 -0.074851 0
+0.018814 -0.147056 0
+0.009216 -0.072032 0
+0.020006 -0.156377 0
+0.028447 -0.222349 0
+0.039402 -0.307983 0
+0.029163 -0.227947 0
+0.036788 -0.287552 0
+0.047887 -0.374299 0
+0.053592 -0.418894 0
+0.049019 -0.383149 0
+0.058790 -0.459527 0
+0.068083 -0.532162 0
+0.074830 -0.584901 0
+0.064716 -0.505840 0
+0.069030 -0.539562 0
+0.079538 -0.621693 0
+0.082720 -0.646566 0
+0.084008 -0.656636 0
+0.088994 -0.695607 0
+0.096959 -0.757868 0
+0.092033 -0.719362 0
+0.011325 -0.088524 0
+0.022225 -0.173719 0
+0.011410 -0.089187 0
+0.024862 -0.194329 0
+0.033682 -0.263271 0
+0.043746 -0.341933 0
+0.032463 -0.253744 0
+0.040975 -0.320272 0
+0.051795 -0.404849 0
+0.061439 -0.480229 0
+0.053766 -0.420255 0
+0.063635 -0.497395 0
+0.072389 -0.565821 0
+0.080896 -0.632313 0
+0.071073 -0.555533 0
+0.078652 -0.614769 0
+0.087150 -0.681199 0
+0.092831 -0.725599 0
+0.088095 -0.688584 0
+0.094752 -0.740614 0
+0.100621 -0.786488 0
+0.099709 -0.779362 0
+0.010376 -0.081105 0
+0.024309 -0.190010 0
+0.019698 -0.153965 0
+0.038184 -0.298456 0
+0.031803 -0.248584 0
+0.043890 -0.343063 0
+0.051258 -0.400648 0
+0.063123 -0.493391 0
+0.056897 -0.444730 0
+0.074675 -0.583688 0
+0.069440 -0.542767 0
+0.079906 -0.624573 0
+0.085617 -0.669216 0
+0.094239 -0.736609 0
+0.090375 -0.706399 0
+0.098888 -0.772944 0
+0.112512 -0.879437 0
+0.111337 -0.870246 0
+0.111337 -0.870246 0
+0.112512 -0.879437 0
+0.109979 -0.859636 0
+0.109979 -0.859636 0
+0.108056 -0.844603 0
+0.112971 -0.883018 0
+0.107649 -0.841425 0
+0.109846 -0.858592 0
+0.107649 -0.841425 0
+0.103439 -0.808519 0
+0.107649 -0.841425 0
+0.112971 -0.883018 0
+0.109846 -0.858592 0
+0.112971 -0.883018 0
+0.112971 -0.883018 0
+0.114022 -0.891233 0
+0.109979 -0.859636 0
+0.109846 -0.858592 0
+0.107649 -0.841425 0
+0.103439 -0.808519 0
+0.109979 -0.859636 0
+0.109846 -0.858592 0
+0.108056 -0.844603 0
+0.106343 -0.831218 0
+0.106343 -0.831217 0
+0.107957 -0.843831 0
+0.109273 -0.854114 0
+0.111502 -0.871537 0
+0.111502 -0.871537 0
+0.109273 -0.854114 0
+0.107957 -0.843831 0
+0.110172 -0.861142 0
+0.107532 -0.840505 0
+0.113003 -0.883274 0
+0.111663 -0.872801 0
+0.112414 -0.878668 0
+0.109745 -0.857805 0
+0.109004 -0.852015 0
+0.105065 -0.821224 0
+0.105791 -0.826902 0
+0.100613 -0.786424 0
+0.109745 -0.857805 0
+0.105791 -0.826902 0
+0.105065 -0.821224 0
+0.100613 -0.786424 0
+0.107532 -0.840504 0
+0.110172 -0.861142 0
+0.105065 -0.821224 0
+0.109004 -0.852015 0
+0.109745 -0.857805 0
+0.112414 -0.878668 0
+0.111663 -0.872801 0
+0.113003 -0.883274 0
+0.113759 -0.889178 0
+0.113759 -0.889178 0
+0.112414 -0.878668 0
+0.113759 -0.889178 0
+0.113003 -0.883274 0
+0.113003 -0.883274 0
+0.113759 -0.889178 0
+0.112414 -0.878668 0
+0.111663 -0.872801 0
+0.109004 -0.852015 0
+0.111502 -0.871537 0
+0.110172 -0.861142 0
+0.107957 -0.843831 0
+0.107532 -0.840505 0
+0.100613 -0.786424 0
+0.105791 -0.826902 0
+0.100613 -0.786424 0
+0.105065 -0.821224 0
+0.105791 -0.826902 0
+0.109745 -0.857805 0
+0.109004 -0.852015 0
+0.111663 -0.872801 0
+0.107532 -0.840505 0
+0.107957 -0.843831 0
+0.110172 -0.861142 0
+0.111502 -0.871537 0
+0.109273 -0.854114 0
+0.109273 -0.854114 0
+0.106343 -0.831217 0
+0.106343 -0.831217 0
