# vtk DataFile Version 2.0
MyTitle
ASCII
DATASET UNSTRUCTURED_GRID
POINTS 48 double
0.000000 0.000000 0.000000
2.000000 0.000000 0.000000
2.000000 2.000000 0.000000
0.000000 2.000000 0.000000
4.000000 0.000000 0.000000
4.000000 2.000000 0.000000
6.000000 0.000000 0.000000
6.000000 2.000000 0.000000
8.000000 0.000000 0.000000
8.000000 2.000000 0.000000
10.000000 0.000000 0.000000
10.000000 2.000000 0.000000
12.000000 0.000000 0.000000
12.000000 2.000000 0.000000
14.000000 0.000000 0.000000
14.000000 2.000000 0.000000
16.000000 0.000000 0.000000
16.000000 2.000000 0.000000
18.000000 0.000000 0.000000
18.000000 2.000000 0.000000
1.000000 0.000000 0.000000
2.000000 1.000000 0.000000
1.000000 2.000000 0.000000
0.000000 1.000000 0.000000
3.000000 0.000000 0.000000
4.000000 1.000000 0.000000
3.000000 2.000000 0.000000
5.000000 0.000000 0.000000
6.000000 1.000000 0.000000
5.000000 2.000000 0.000000
7.000000 0.000000 0.000000
8.000000 1.000000 0.000000
7.000000 2.000000 0.000000
9.000000 0.000000 0.000000
10.000000 1.000000 0.000000
9.000000 2.000000 0.000000
11.000000 0.000000 0.000000
12.000000 1.000000 0.000000
11.000000 2.000000 0.000000
13.000000 0.000000 0.000000
14.000000 1.000000 0.000000
13.000000 2.000000 0.000000
15.000000 0.000000 0.000000
16.000000 1.000000 0.000000
15.000000 2.000000 0.000000
17.000000 0.000000 0.000000
18.000000 1.000000 0.000000
17.000000 2.000000 0.000000
CELLS 9 81
8 0 1 2 3 20 21 22 23
8 1 4 5 2 24 25 26 21
8 4 6 7 5 27 28 29 25
8 6 8 9 7 30 31 32 28
8 8 10 11 9 33 34 35 31
8 10 12 13 11 36 37 38 34
8 12 14 15 13 39 40 41 37
8 14 16 17 15 42 43 44 40
8 16 18 19 17 45 46 47 43
CELL_TYPES 9
23
23
23
23
23
23
23
23
23
POINT_DATA 48
VECTORS sol double
+0.000000 +0.000000 0
+0.000000 +0.028867 0
+0.000000 +0.027891 0
+0.000000 +0.000000 0
+0.000000 -0.001686 0
+0.000000 -0.001503 0
+0.000000 -0.000496 0
+0.000000 -0.000521 0
+0.000000 +0.000353 0
+0.000000 +0.000352 0
+0.000000 -0.000118 0
+0.000000 -0.000116 0
+0.000000 +0.000029 0
+0.000000 +0.000029 0
+0.000000 -0.000006 0
+0.000000 -0.000006 0
+0.000000 +0.000001 0
+0.000000 +0.000001 0
+0.000000 -0.000000 0
+0.000000 -0.000000 0
+0.000000 +0.063654 0
+0.000000 +0.016080 0
+0.000000 +0.063557 0
+0.000000 +0.000000 0
+0.000000 +0.000015 0
+0.000000 +0.000481 0
+0.000000 -0.000013 0
+0.000000 +0.001271 0
+0.000000 +0.000162 0
+0.000000 +0.001266 0
+0.000000 -0.000392 0
+0.000000 -0.000073 0
+0.000000 -0.000389 0
+0.000000 +0.000100 0
+0.000000 +0.000022 0
+0.000000 +0.000099 0
+0.000000 -0.000022 0
+0.000000 -0.000005 0
+0.000000 -0.000021 0
+0.000000 +0.000004 0
+0.000000 +0.000001 0
+0.000000 +0.000004 0
+0.000000 -0.000001 0
+0.000000 -0.000000 0
+0.000000 -0.000001 0
+0.000000 +0.000000 0
+0.000000 +0.000000 0
+0.000000 +0.000000 0
