# vtk DataFile Version 2.0
MyTitle
ASCII
DATASET UNSTRUCTURED_GRID
POINTS 8 double
0.000000 0.000000 0.000000
2.000000 0.000000 0.000000
2.000000 2.000000 0.000000
0.000000 2.000000 0.000000
1.000000 0.000000 0.000000
2.000000 1.000000 0.000000
1.000000 2.000000 0.000000
0.000000 1.000000 0.000000
CELLS 1 9
8
0
1
2
3
4
5
6
7
CELL_TYPES 1
23
POINT_DATA 8
VECTORS sol double
+0.000000 +5.000000 0
+0.000000 -0.357334 0
+0.000000 -0.361712 0
+0.000000 +5.000000 0
+0.000000 +1.418343 0
+0.000000 +0.611965 0
+0.000000 +1.414912 0
+0.000000 +5.000000 0
