# vtk DataFile Version 2.0
MyTitle
ASCII
DATASET UNSTRUCTURED_GRID
POINTS 8 double
0.000000 0.000000 0.000000
2.000000 0.000000 0.000000
2.000000 2.000000 0.000000
0.000000 2.000000 0.000000
1.000000 0.000000 0.000000
2.000000 1.000000 0.000000
1.000000 2.000000 0.000000
0.000000 1.000000 0.000000
CELLS 1 9
8
0
1
2
3
4
5
6
7
CELL_TYPES 1
23
POINT_DATA 8
VECTORS sol double
+0.000000 +5.000000 0
+0.000000 -0.692172 0
+0.000000 -0.684205 0
+0.000000 +5.000000 0
+0.000000 +1.028009 0
+0.000000 +0.426381 0
+0.000000 +1.025339 0
+0.000000 +5.000000 0
