# vtk DataFile Version 2.0
MyTitle
ASCII
DATASET UNSTRUCTURED_GRID
POINTS 8 double
0.000000 0.000000 0.000000
2.000000 0.000000 0.000000
2.000000 2.000000 0.000000
0.000000 2.000000 0.000000
1.000000 0.000000 0.000000
2.000000 1.000000 0.000000
1.000000 2.000000 0.000000
0.000000 1.000000 0.000000
CELLS 1 9
8
0
1
2
3
4
5
6
7
CELL_TYPES 1
23
POINT_DATA 8
VECTORS sol double
+0.000000 +5.000000 0
+0.000000 -0.493458 0
+0.000000 -0.482049 0
+0.000000 +5.000000 0
+0.000000 +0.281550 0
+0.000000 +0.146142 0
+0.000000 +0.280503 0
+0.000000 +5.000000 0
