# vtk DataFile Version 2.0
MyTitle
ASCII
DATASET UNSTRUCTURED_GRID
POINTS 8 double
0.000000 0.000000 0.000000
2.000000 0.000000 0.000000
2.000000 2.000000 0.000000
0.000000 2.000000 0.000000
1.000000 0.000000 0.000000
2.000000 1.000000 0.000000
1.000000 2.000000 0.000000
0.000000 1.000000 0.000000
CELLS 1 9
8
0
1
2
3
4
5
6
7
CELL_TYPES 1
23
POINT_DATA 8
VECTORS sol double
+0.000000 +5.000000 0
+0.000000 -0.326534 0
+0.000000 -0.331773 0
+0.000000 +5.000000 0
+0.000000 +1.447409 0
+0.000000 +0.628326 0
+0.000000 +1.443915 0
+0.000000 +5.000000 0
