# vtk DataFile Version 2.0
MyTitle
ASCII
DATASET UNSTRUCTURED_GRID
POINTS 13 double
0.000000 0.000000 0.000000
4.000000 0.000000 0.000000
4.000000 2.000000 0.000000
0.000000 2.000000 0.000000
2.000000 0.000000 0.000000
1.000000 0.000000 0.000000
3.000000 0.000000 0.000000
4.000000 1.000000 0.000000
2.000000 2.000000 0.000000
3.000000 2.000000 0.000000
1.000000 2.000000 0.000000
0.000000 1.000000 0.000000
2.000000 1.000000 0.000000
CELLS 2 18
8 0 4 8 3 5 12 10 11
8 4 1 2 8 6 7 9 12
CELL_TYPES 2
23
23
POINT_DATA 13
VECTORS sol double
+0.000000 +5.000000 0
+0.000000 +0.168580 0
+0.000000 +0.164135 0
+0.000000 +5.000000 0
+0.000000 -0.449621 0
+0.000000 +0.794389 0
+0.000000 -0.044806 0
+0.000000 -0.030982 0
+0.000000 -0.431573 0
+0.000000 -0.046220 0
+0.000000 +0.790029 0
+0.000000 +5.000000 0
+0.000000 +0.147236 0
