# vtk DataFile Version 2.0
this shit
ASCII
DATASET POLYDATA
POINTS 121 double
-0.628319 -0.628319 0.000000
-0.502655 -0.628319 0.000000
-0.376991 -0.628319 0.000000
-0.251327 -0.628319 0.000000
-0.125664 -0.628319 0.000000
0.000000 -0.628319 0.000000
0.125664 -0.628319 0.000000
0.251327 -0.628319 0.000000
0.376991 -0.628319 0.000000
0.502655 -0.628319 0.000000
0.628319 -0.628319 0.000000
-0.628319 -0.502655 0.000000
-0.502655 -0.502655 0.000000
-0.376991 -0.502655 0.000000
-0.251327 -0.502655 0.000000
-0.125664 -0.502655 0.000000
0.000000 -0.502655 0.000000
0.125664 -0.502655 0.000000
0.251327 -0.502655 0.000000
0.376991 -0.502655 0.000000
0.502655 -0.502655 0.000000
0.628319 -0.502655 0.000000
-0.628319 -0.376991 0.000000
-0.502655 -0.376991 0.000000
-0.376991 -0.376991 0.000000
-0.251327 -0.376991 0.000000
-0.125664 -0.376991 0.000000
0.000000 -0.376991 0.000000
0.125664 -0.376991 0.000000
0.251327 -0.376991 0.000000
0.376991 -0.376991 0.000000
0.502655 -0.376991 0.000000
0.628319 -0.376991 0.000000
-0.628319 -0.251327 0.000000
-0.502655 -0.251327 0.000000
-0.376991 -0.251327 0.000000
-0.251327 -0.251327 0.000000
-0.125664 -0.251327 0.000000
0.000000 -0.251327 0.000000
0.125664 -0.251327 0.000000
0.251327 -0.251327 0.000000
0.376991 -0.251327 0.000000
0.502655 -0.251327 0.000000
0.628319 -0.251327 0.000000
-0.628319 -0.125664 0.000000
-0.502655 -0.125664 0.000000
-0.376991 -0.125664 0.000000
-0.251327 -0.125664 0.000000
-0.125664 -0.125664 0.000000
0.000000 -0.125664 0.000000
0.125664 -0.125664 0.000000
0.251327 -0.125664 0.000000
0.376991 -0.125664 0.000000
0.502655 -0.125664 0.000000
0.628319 -0.125664 0.000000
-0.628319 0.000000 0.000000
-0.502655 0.000000 0.000000
-0.376991 0.000000 0.000000
-0.251327 0.000000 0.000000
-0.125664 0.000000 0.000000
0.000000 0.000000 0.000000
0.125664 0.000000 0.000000
0.251327 0.000000 0.000000
0.376991 0.000000 0.000000
0.502655 0.000000 0.000000
0.628319 0.000000 0.000000
-0.628319 0.125664 0.000000
-0.502655 0.125664 0.000000
-0.376991 0.125664 0.000000
-0.251327 0.125664 0.000000
-0.125664 0.125664 0.000000
0.000000 0.125664 0.000000
0.125664 0.125664 0.000000
0.251327 0.125664 0.000000
0.376991 0.125664 0.000000
0.502655 0.125664 0.000000
0.628319 0.125664 0.000000
-0.628319 0.251327 0.000000
-0.502655 0.251327 0.000000
-0.376991 0.251327 0.000000
-0.251327 0.251327 0.000000
-0.125664 0.251327 0.000000
0.000000 0.251327 0.000000
0.125664 0.251327 0.000000
0.251327 0.251327 0.000000
0.376991 0.251327 0.000000
0.502655 0.251327 0.000000
0.628319 0.251327 0.000000
-0.628319 0.376991 0.000000
-0.502655 0.376991 0.000000
-0.376991 0.376991 0.000000
-0.251327 0.376991 0.000000
-0.125664 0.376991 0.000000
0.000000 0.376991 0.000000
0.125664 0.376991 0.000000
0.251327 0.376991 0.000000
0.376991 0.376991 0.000000
0.502655 0.376991 0.000000
0.628319 0.376991 0.000000
-0.628319 0.502655 0.000000
-0.502655 0.502655 0.000000
-0.376991 0.502655 0.000000
-0.251327 0.502655 0.000000
-0.125664 0.502655 0.000000
0.000000 0.502655 0.000000
0.125664 0.502655 0.000000
0.251327 0.502655 0.000000
0.376991 0.502655 0.000000
0.502655 0.502655 0.000000
0.628319 0.502655 0.000000
-0.628319 0.628319 0.000000
-0.502655 0.628319 0.000000
-0.376991 0.628319 0.000000
-0.251327 0.628319 0.000000
-0.125664 0.628319 0.000000
0.000000 0.628319 0.000000
0.125664 0.628319 0.000000
0.251327 0.628319 0.000000
0.376991 0.628319 0.000000
0.502655 0.628319 0.000000
0.628319 0.628319 0.000000
POLYGONS 200 800
3 0 1 12
3 0 12 11
3 1 2 13
3 1 13 12
3 2 3 14
3 2 14 13
3 3 4 15
3 3 15 14
3 4 5 16
3 4 16 15
3 5 6 17
3 5 17 16
3 6 7 18
3 6 18 17
3 7 8 19
3 7 19 18
3 8 9 20
3 8 20 19
3 9 10 21
3 9 21 20
3 11 12 23
3 11 23 22
3 12 13 24
3 12 24 23
3 13 14 25
3 13 25 24
3 14 15 26
3 14 26 25
3 15 16 27
3 15 27 26
3 16 17 28
3 16 28 27
3 17 18 29
3 17 29 28
3 18 19 30
3 18 30 29
3 19 20 31
3 19 31 30
3 20 21 32
3 20 32 31
3 22 23 34
3 22 34 33
3 23 24 35
3 23 35 34
3 24 25 36
3 24 36 35
3 25 26 37
3 25 37 36
3 26 27 38
3 26 38 37
3 27 28 39
3 27 39 38
3 28 29 40
3 28 40 39
3 29 30 41
3 29 41 40
3 30 31 42
3 30 42 41
3 31 32 43
3 31 43 42
3 33 34 45
3 33 45 44
3 34 35 46
3 34 46 45
3 35 36 47
3 35 47 46
3 36 37 48
3 36 48 47
3 37 38 49
3 37 49 48
3 38 39 50
3 38 50 49
3 39 40 51
3 39 51 50
3 40 41 52
3 40 52 51
3 41 42 53
3 41 53 52
3 42 43 54
3 42 54 53
3 44 45 56
3 44 56 55
3 45 46 57
3 45 57 56
3 46 47 58
3 46 58 57
3 47 48 59
3 47 59 58
3 48 49 60
3 48 60 59
3 49 50 61
3 49 61 60
3 50 51 62
3 50 62 61
3 51 52 63
3 51 63 62
3 52 53 64
3 52 64 63
3 53 54 65
3 53 65 64
3 55 56 67
3 55 67 66
3 56 57 68
3 56 68 67
3 57 58 69
3 57 69 68
3 58 59 70
3 58 70 69
3 59 60 71
3 59 71 70
3 60 61 72
3 60 72 71
3 61 62 73
3 61 73 72
3 62 63 74
3 62 74 73
3 63 64 75
3 63 75 74
3 64 65 76
3 64 76 75
3 66 67 78
3 66 78 77
3 67 68 79
3 67 79 78
3 68 69 80
3 68 80 79
3 69 70 81
3 69 81 80
3 70 71 82
3 70 82 81
3 71 72 83
3 71 83 82
3 72 73 84
3 72 84 83
3 73 74 85
3 73 85 84
3 74 75 86
3 74 86 85
3 75 76 87
3 75 87 86
3 77 78 89
3 77 89 88
3 78 79 90
3 78 90 89
3 79 80 91
3 79 91 90
3 80 81 92
3 80 92 91
3 81 82 93
3 81 93 92
3 82 83 94
3 82 94 93
3 83 84 95
3 83 95 94
3 84 85 96
3 84 96 95
3 85 86 97
3 85 97 96
3 86 87 98
3 86 98 97
3 88 89 100
3 88 100 99
3 89 90 101
3 89 101 100
3 90 91 102
3 90 102 101
3 91 92 103
3 91 103 102
3 92 93 104
3 92 104 103
3 93 94 105
3 93 105 104
3 94 95 106
3 94 106 105
3 95 96 107
3 95 107 106
3 96 97 108
3 96 108 107
3 97 98 109
3 97 109 108
3 99 100 111
3 99 111 110
3 100 101 112
3 100 112 111
3 101 102 113
3 101 113 112
3 102 103 114
3 102 114 113
3 103 104 115
3 103 115 114
3 104 105 116
3 104 116 115
3 105 106 117
3 105 117 116
3 106 107 118
3 106 118 117
3 107 108 119
3 107 119 118
3 108 109 120
3 108 120 119
POINT_DATA 121
SCALARS sol_0 double
LOOKUP_TABLE defaul
6.856301
6.857781
6.872251
6.903079
6.945465
6.983732
7.025715
7.019149
6.973860
6.927877
6.887884
6.891657
6.889782
6.898786
6.923075
6.963407
7.003642
7.042185
7.024509
6.982351
6.940880
6.905609
6.927899
6.924042
6.929108
6.947929
6.983311
7.026542
7.058408
7.036400
6.995524
6.957502
6.937643
6.963387
6.959128
6.962319
6.977787
7.009609
7.053627
7.080607
7.049456
7.008340
6.983618
6.973682
6.994501
6.991596
6.995487
7.010813
7.041754
7.085172
7.095723
7.051473
7.021385
7.006611
7.002403
7.014306
7.014398
7.021913
7.041300
7.075484
7.119562
7.075484
7.041300
7.021913
7.014398
7.014306
7.002403
7.006611
7.021385
7.051473
7.095723
7.085172
7.041754
7.010813
6.995487
6.991596
6.994501
6.973682
6.983618
7.008340
7.049456
7.080607
7.053627
7.009609
6.977787
6.962319
6.959128
6.963387
6.937643
6.957502
6.995524
7.036400
7.058408
7.026542
6.983311
6.947929
6.929108
6.924042
6.927899
6.905609
6.940880
6.982351
7.024509
7.042185
7.003642
6.963407
6.923075
6.898786
6.889782
6.891657
6.887884
6.927877
6.973860
7.019149
7.025715
6.983732
6.945465
6.903079
6.872251
6.857781
6.856301
