# vtk DataFile Version 2.0
MyTitle
ASCII
DATASET UNSTRUCTURED_GRID
POINTS 1045 double
1.000000 -1.000000 0.000000
1.000000 1.000000 0.000000
-1.000000 1.000000 0.000000
-1.000000 -1.000000 0.000000
1.000000 -0.888889 0.000000
1.000000 -0.777778 0.000000
1.000000 -0.666667 0.000000
1.000000 -0.555556 0.000000
1.000000 -0.444444 0.000000
1.000000 -0.333333 0.000000
1.000000 -0.222222 0.000000
1.000000 -0.111111 0.000000
1.000000 -0.000000 0.000000
1.000000 0.111111 0.000000
1.000000 0.222222 0.000000
1.000000 0.333333 0.000000
1.000000 0.444444 0.000000
1.000000 0.555556 0.000000
1.000000 0.666667 0.000000
1.000000 0.777778 0.000000
1.000000 0.888889 0.000000
1.000000 -0.944444 0.000000
1.000000 -0.833333 0.000000
1.000000 -0.722222 0.000000
1.000000 -0.611111 0.000000
1.000000 -0.500000 0.000000
1.000000 -0.388889 0.000000
1.000000 -0.277778 0.000000
1.000000 -0.166667 0.000000
1.000000 -0.055556 0.000000
1.000000 0.055556 0.000000
1.000000 0.166667 0.000000
1.000000 0.277778 0.000000
1.000000 0.388889 0.000000
1.000000 0.500000 0.000000
1.000000 0.611111 0.000000
1.000000 0.722222 0.000000
1.000000 0.833333 0.000000
1.000000 0.944444 0.000000
0.888889 1.000000 0.000000
0.777778 1.000000 0.000000
0.666667 1.000000 0.000000
0.555556 1.000000 0.000000
0.444444 1.000000 0.000000
0.333333 1.000000 0.000000
0.222222 1.000000 0.000000
0.111111 1.000000 0.000000
0.000000 1.000000 0.000000
-0.111111 1.000000 0.000000
-0.222222 1.000000 0.000000
-0.333333 1.000000 0.000000
-0.444444 1.000000 0.000000
-0.555556 1.000000 0.000000
-0.666667 1.000000 0.000000
-0.777778 1.000000 0.000000
-0.888889 1.000000 0.000000
0.944444 1.000000 0.000000
0.833333 1.000000 0.000000
0.722222 1.000000 0.000000
0.611111 1.000000 0.000000
0.500000 1.000000 0.000000
0.388889 1.000000 0.000000
0.277778 1.000000 0.000000
0.166667 1.000000 0.000000
0.055556 1.000000 0.000000
-0.055556 1.000000 0.000000
-0.166667 1.000000 0.000000
-0.277778 1.000000 0.000000
-0.388889 1.000000 0.000000
-0.500000 1.000000 0.000000
-0.611111 1.000000 0.000000
-0.722222 1.000000 0.000000
-0.833333 1.000000 0.000000
-0.944444 1.000000 0.000000
-1.000000 0.888889 0.000000
-1.000000 0.777778 0.000000
-1.000000 0.666667 0.000000
-1.000000 0.555556 0.000000
-1.000000 0.444444 0.000000
-1.000000 0.333333 0.000000
-1.000000 0.222222 0.000000
-1.000000 0.111111 0.000000
-1.000000 0.000000 0.000000
-1.000000 -0.111111 0.000000
-1.000000 -0.222222 0.000000
-1.000000 -0.333333 0.000000
-1.000000 -0.444444 0.000000
-1.000000 -0.555556 0.000000
-1.000000 -0.666667 0.000000
-1.000000 -0.777778 0.000000
-1.000000 -0.888889 0.000000
-1.000000 0.944444 0.000000
-1.000000 0.833333 0.000000
-1.000000 0.722222 0.000000
-1.000000 0.611111 0.000000
-1.000000 0.500000 0.000000
-1.000000 0.388889 0.000000
-1.000000 0.277778 0.000000
-1.000000 0.166667 0.000000
-1.000000 0.055556 0.000000
-1.000000 -0.055556 0.000000
-1.000000 -0.166667 0.000000
-1.000000 -0.277778 0.000000
-1.000000 -0.388889 0.000000
-1.000000 -0.500000 0.000000
-1.000000 -0.611111 0.000000
-1.000000 -0.722222 0.000000
-1.000000 -0.833333 0.000000
-1.000000 -0.944444 0.000000
-0.888889 -1.000000 0.000000
-0.777778 -1.000000 0.000000
-0.666667 -1.000000 0.000000
-0.555556 -1.000000 0.000000
-0.444444 -1.000000 0.000000
-0.333333 -1.000000 0.000000
-0.222222 -1.000000 0.000000
-0.111111 -1.000000 0.000000
-0.000000 -1.000000 0.000000
0.111111 -1.000000 0.000000
0.222222 -1.000000 0.000000
0.333333 -1.000000 0.000000
0.444444 -1.000000 0.000000
0.555556 -1.000000 0.000000
0.666667 -1.000000 0.000000
0.777778 -1.000000 0.000000
0.888889 -1.000000 0.000000
-0.944444 -1.000000 0.000000
-0.833333 -1.000000 0.000000
-0.722222 -1.000000 0.000000
-0.611111 -1.000000 0.000000
-0.500000 -1.000000 0.000000
-0.388889 -1.000000 0.000000
-0.277778 -1.000000 0.000000
-0.166667 -1.000000 0.000000
-0.055556 -1.000000 0.000000
0.055556 -1.000000 0.000000
0.166667 -1.000000 0.000000
0.277778 -1.000000 0.000000
0.388889 -1.000000 0.000000
0.500000 -1.000000 0.000000
0.611111 -1.000000 0.000000
0.722222 -1.000000 0.000000
0.833333 -1.000000 0.000000
0.944444 -1.000000 0.000000
-0.777778 0.777778 0.000000
-0.555556 0.777778 0.000000
-0.333333 0.777778 0.000000
-0.111111 0.777778 0.000000
0.111111 0.777778 0.000000
0.333333 0.777778 0.000000
0.555556 0.777778 0.000000
0.777778 0.777778 0.000000
-0.777778 0.555556 0.000000
-0.555556 0.555556 0.000000
-0.333333 0.555556 0.000000
-0.111111 0.555556 0.000000
0.111111 0.555556 0.000000
0.333333 0.555556 0.000000
0.555556 0.555556 0.000000
0.777778 0.555556 0.000000
-0.777778 0.333333 0.000000
-0.555556 0.333333 0.000000
-0.333333 0.333333 0.000000
-0.111111 0.333333 0.000000
0.111111 0.333333 0.000000
0.333333 0.333333 0.000000
0.555556 0.333333 0.000000
0.777778 0.333333 0.000000
-0.777778 0.111111 0.000000
-0.555556 0.111111 0.000000
-0.333333 0.111111 0.000000
-0.111111 0.111111 0.000000
0.111111 0.111111 0.000000
0.333333 0.111111 0.000000
0.555556 0.111111 0.000000
0.777778 0.111111 0.000000
-0.777778 -0.111111 0.000000
-0.555556 -0.111111 0.000000
-0.333333 -0.111111 0.000000
-0.111111 -0.111111 0.000000
0.111111 -0.111111 0.000000
0.333333 -0.111111 0.000000
0.555556 -0.111111 0.000000
0.777778 -0.111111 0.000000
-0.777778 -0.333333 0.000000
-0.555556 -0.333333 0.000000
-0.333333 -0.333333 0.000000
-0.111111 -0.333333 0.000000
0.111111 -0.333333 0.000000
0.333333 -0.333333 0.000000
0.555556 -0.333333 0.000000
0.777778 -0.333333 0.000000
-0.777778 -0.555556 0.000000
-0.555556 -0.555556 0.000000
-0.333333 -0.555556 0.000000
-0.111111 -0.555556 0.000000
0.111111 -0.555556 0.000000
0.333333 -0.555556 0.000000
0.555556 -0.555556 0.000000
0.777778 -0.555556 0.000000
-0.777778 -0.777778 0.000000
-0.555556 -0.777778 0.000000
-0.333333 -0.777778 0.000000
-0.111111 -0.777778 0.000000
0.111111 -0.777778 0.000000
0.333333 -0.777778 0.000000
0.555556 -0.777778 0.000000
0.777778 -0.777778 0.000000
-0.888889 0.777778 0.000000
-0.777778 0.888889 0.000000
-0.888889 0.888889 0.000000
-0.666667 0.777778 0.000000
-0.555556 0.888889 0.000000
-0.666667 0.888889 0.000000
-0.444444 0.777778 0.000000
-0.333333 0.888889 0.000000
-0.444444 0.888889 0.000000
-0.222222 0.777778 0.000000
-0.111111 0.888889 0.000000
-0.222222 0.888889 0.000000
0.000000 0.777778 0.000000
0.111111 0.888889 0.000000
0.000000 0.888889 0.000000
0.222222 0.777778 0.000000
0.333333 0.888889 0.000000
0.222222 0.888889 0.000000
0.444444 0.777778 0.000000
0.555556 0.888889 0.000000
0.444444 0.888889 0.000000
0.666667 0.777778 0.000000
0.777778 0.888889 0.000000
0.666667 0.888889 0.000000
0.888889 0.777778 0.000000
0.888889 0.888889 0.000000
-0.888889 0.555556 0.000000
-0.777778 0.666667 0.000000
-0.888889 0.666667 0.000000
-0.666667 0.555556 0.000000
-0.555556 0.666667 0.000000
-0.666667 0.666667 0.000000
-0.444444 0.555556 0.000000
-0.333333 0.666667 0.000000
-0.444444 0.666667 0.000000
-0.222222 0.555556 0.000000
-0.111111 0.666667 0.000000
-0.222222 0.666667 0.000000
0.000000 0.555556 0.000000
0.111111 0.666667 0.000000
0.000000 0.666667 0.000000
0.222222 0.555556 0.000000
0.333333 0.666667 0.000000
0.222222 0.666667 0.000000
0.444444 0.555556 0.000000
0.555556 0.666667 0.000000
0.444444 0.666667 0.000000
0.666667 0.555556 0.000000
0.777778 0.666667 0.000000
0.666667 0.666667 0.000000
0.888889 0.555556 0.000000
0.888889 0.666667 0.000000
-0.888889 0.333333 0.000000
-0.777778 0.444444 0.000000
-0.888889 0.444444 0.000000
-0.666667 0.333333 0.000000
-0.555556 0.444444 0.000000
-0.666667 0.444444 0.000000
-0.444444 0.333333 0.000000
-0.333333 0.444444 0.000000
-0.444444 0.444444 0.000000
-0.222222 0.333333 0.000000
-0.111111 0.444444 0.000000
-0.222222 0.444444 0.000000
0.000000 0.333333 0.000000
0.111111 0.444444 0.000000
0.000000 0.444444 0.000000
0.222222 0.333333 0.000000
0.333333 0.444444 0.000000
0.222222 0.444444 0.000000
0.444444 0.333333 0.000000
0.555556 0.444444 0.000000
0.444444 0.444444 0.000000
0.666667 0.333333 0.000000
0.777778 0.444444 0.000000
0.666667 0.444444 0.000000
0.888889 0.333333 0.000000
0.888889 0.444444 0.000000
-0.888889 0.111111 0.000000
-0.777778 0.222222 0.000000
-0.888889 0.222222 0.000000
-0.666667 0.111111 0.000000
-0.555556 0.222222 0.000000
-0.666667 0.222222 0.000000
-0.444444 0.111111 0.000000
-0.333333 0.222222 0.000000
-0.444444 0.222222 0.000000
-0.222222 0.111111 0.000000
-0.111111 0.222222 0.000000
-0.222222 0.222222 0.000000
0.000000 0.111111 0.000000
0.111111 0.222222 0.000000
0.000000 0.222222 0.000000
0.222222 0.111111 0.000000
0.333333 0.222222 0.000000
0.222222 0.222222 0.000000
0.444444 0.111111 0.000000
0.555556 0.222222 0.000000
0.444444 0.222222 0.000000
0.666667 0.111111 0.000000
0.777778 0.222222 0.000000
0.666667 0.222222 0.000000
0.888889 0.111111 0.000000
0.888889 0.222222 0.000000
-0.888889 -0.111111 0.000000
-0.777778 0.000000 0.000000
-0.888889 0.000000 0.000000
-0.666667 -0.111111 0.000000
-0.555556 0.000000 0.000000
-0.666667 0.000000 0.000000
-0.444444 -0.111111 0.000000
-0.333333 0.000000 0.000000
-0.444444 0.000000 0.000000
-0.222222 -0.111111 0.000000
-0.111111 0.000000 0.000000
-0.222222 0.000000 0.000000
-0.000000 -0.111111 0.000000
0.111111 -0.000000 0.000000
-0.000000 -0.000000 0.000000
0.222222 -0.111111 0.000000
0.333333 -0.000000 0.000000
0.222222 -0.000000 0.000000
0.444444 -0.111111 0.000000
0.555556 -0.000000 0.000000
0.444444 -0.000000 0.000000
0.666667 -0.111111 0.000000
0.777778 -0.000000 0.000000
0.666667 -0.000000 0.000000
0.888889 -0.111111 0.000000
0.888889 -0.000000 0.000000
-0.888889 -0.333333 0.000000
-0.777778 -0.222222 0.000000
-0.888889 -0.222222 0.000000
-0.666667 -0.333333 0.000000
-0.555556 -0.222222 0.000000
-0.666667 -0.222222 0.000000
-0.444444 -0.333333 0.000000
-0.333333 -0.222222 0.000000
-0.444444 -0.222222 0.000000
-0.222222 -0.333333 0.000000
-0.111111 -0.222222 0.000000
-0.222222 -0.222222 0.000000
-0.000000 -0.333333 0.000000
0.111111 -0.222222 0.000000
-0.000000 -0.222222 0.000000
0.222222 -0.333333 0.000000
0.333333 -0.222222 0.000000
[...]
POINT_DATA 1045
VECTORS sol double
+0.000000 +0.000000 0
+0.000000 +0.000000 0
+0.000000 +0.000000 0
+0.000000 +0.000000 0
+0.000000 +0.000000 0
+0.000000 +0.000000 0
+0.000000 +0.000000 0
+0.000000 +0.000000 0
+0.000000 +0.000000 0
+0.000000 +0.000000 0
+0.000000 +0.000000 0
+0.000000 +0.000000 0
+0.000000 +0.000000 0
+0.000000 +0.000000 0
+0.000000 +0.000000 0
+0.000000 +0.000000 0
+0.000000 +0.000000 0
+0.000000 +0.000000 0
+0.000000 +0.000000 0
+0.000000 +0.000000 0
+0.000000 +0.000000 0
+0.000000 +0.000000 0
+0.000000 +0.000000 0
+0.000000 +0.000000 0
+0.000000 +0.000000 0
+0.000000 +0.000000 0
+0.000000 +0.000000 0
+0.000000 +0.000000 0
+0.000000 +0.000000 0
+0.000000 +0.000000 0
+0.000000 +0.000000 0
+0.000000 +0.000000 0
+0.000000 +0.000000 0
+0.000000 +0.000000 0
+0.000000 +0.000000 0
+0.000000 +0.000000 0
+0.000000 +0.000000 0
+0.000000 +0.000000 0
+0.000000 +0.000000 0
+0.000000 +0.000000 0
+0.000000 +0.000000 0
+0.000000 +0.000000 0
+0.000000 +0.000000 0
+0.000000 +0.000000 0
+0.000000 +0.000000 0
+0.000000 +0.000000 0
+0.000000 +0.000000 0
+0.000000 +0.000000 0
+0.000000 +0.000000 0
+0.000000 +0.000000 0
+0.000000 +0.000000 0
+0.000000 +0.000000 0
+0.000000 +0.000000 0
+0.000000 +0.000000 0
+0.000000 +0.000000 0
+0.000000 +0.000000 0
+0.000000 +0.000000 0
+0.000000 +0.000000 0
+0.000000 +0.000000 0
+0.000000 +0.000000 0
+0.000000 +0.000000 0
+0.000000 +0.000000 0
+0.000000 +0.000000 0
+0.000000 +0.000000 0
+0.000000 +0.000000 0
+0.000000 +0.000000 0
+0.000000 +0.000000 0
+0.000000 +0.000000 0
+0.000000 +0.000000 0
+0.000000 +0.000000 0
+0.000000 +0.000000 0
+0.000000 +0.000000 0
+0.000000 +0.000000 0
+0.000000 +0.000000 0
+0.000000 +0.000000 0
+0.000000 +0.000000 0
+0.000000 +0.000000 0
+0.000000 +0.000000 0
+0.000000 +0.000000 0
+0.000000 +0.000000 0
+0.000000 +0.000000 0
+0.000000 +0.000000 0
+0.000000 +0.000000 0
+0.000000 +0.000000 0
+0.000000 +0.000000 0
+0.000000 +0.000000 0
+0.000000 +0.000000 0
+0.000000 +0.000000 0
+0.000000 +0.000000 0
+0.000000 +0.000000 0
+0.000000 +0.000000 0
+0.000000 +0.000000 0
+0.000000 +0.000000 0
+0.000000 +0.000000 0
+0.000000 +0.000000 0
+0.000000 +0.000000 0
+0.000000 +0.000000 0
+0.000000 +0.000000 0
+0.000000 +0.000000 0
+0.000000 +0.000000 0
+0.000000 +0.000000 0
+0.000000 +0.000000 0
+0.000000 +0.000000 0
+0.000000 +0.000000 0
+0.000000 +0.000000 0
+0.000000 +0.000000 0
+0.000000 +0.000000 0
+0.000000 +0.000000 0
+0.000000 +0.000000 0
+0.000000 +0.000000 0
+0.000000 +0.000000 0
+0.000000 +0.000000 0
+0.000000 +0.000000 0
+0.000000 +0.000000 0
+0.000000 +0.000000 0
+0.000000 +0.000000 0
+0.000000 +0.000000 0
+0.000000 +0.000000 0
+0.000000 +0.000000 0
+0.000000 +0.000000 0
+0.000000 +0.000000 0
+0.000000 +0.000000 0
+0.000000 +0.000000 0
+0.000000 +0.000000 0
+0.000000 +0.000000 0
+0.000000 +0.000000 0
+0.000000 +0.000000 0
+0.000000 +0.000000 0
+0.000000 +0.000000 0
+0.000000 +0.000000 0
+0.000000 +0.000000 0
+0.000000 +0.000000 0
+0.000000 +0.000000 0
+0.000000 +0.000000 0
+0.000000 +0.000000 0
+0.000000 +0.000000 0
+0.000000 +0.000000 0
+0.000000 +0.000000 0
+0.000000 +0.000000 0
+0.000000 +0.000000 0
+0.000000 +0.000000 0
+0.000000 +0.000000 0
+0.000000 +0.000000 0
+0.000000 +0.000000 0
+0.021646 +0.708792 0
-0.048907 +0.946775 0
-0.178646 +0.602595 0
-0.224795 -0.023546 0
-0.083689 -0.499513 0
+0.178646 -0.602595 0
+0.357391 -0.423716 0
+0.286838 -0.185733 0
+0.103716 +0.847948 0
+0.033163 +1.085932 0
-0.178646 +0.602595 0
-0.306866 -0.162703 0
-0.165760 -0.638669 0
+0.178646 -0.602595 0
+0.439462 -0.284560 0
+0.368909 -0.046576 0
+0.207810 +0.352357 0
+0.207810 +0.352357 0
-0.000000 +0.000000 0
-0.207810 -0.352357 0
-0.207810 -0.352357 0
+0.000000 +0.000000 0
+0.207810 +0.352357 0
+0.207810 +0.352357 0
+0.214667 -0.308105 0
+0.285220 -0.546089 0
+0.178646 -0.602595 0
-0.011518 -0.377140 0
-0.152624 +0.098826 0
-0.178646 +0.602595 0
-0.121079 +0.824402 0
-0.050526 +0.586419 0
+0.050526 -0.586419 0
+0.121079 -0.824402 0
+0.178646 -0.602595 0
+0.152624 -0.098826 0
+0.011518 +0.377140 0
-0.178646 +0.602595 0
-0.285220 +0.546089 0
-0.214667 +0.308105 0
-0.207810 -0.352357 0
-0.207810 -0.352357 0
-0.000000 -0.000000 0
+0.207810 +0.352357 0
+0.207810 +0.352357 0
+0.000000 -0.000000 0
-0.207810 -0.352357 0
-0.207810 -0.352357 0
-0.368909 +0.046576 0
-0.439462 +0.284560 0
-0.178646 +0.602595 0
+0.165760 +0.638669 0
+0.306866 +0.162703 0
+0.178646 -0.602595 0
-0.033163 -1.085932 0
-0.103716 -0.847948 0
-0.286838 +0.185733 0
-0.357391 +0.423716 0
-0.178646 +0.602595 0
+0.083689 +0.499513 0
+0.224795 +0.023546 0
+0.178646 -0.602595 0
+0.048907 -0.946775 0
-0.021646 -0.708792 0
+0.018499 +0.388977 0
+0.005516 +0.397384 0
+0.006650 +0.217742 0
-0.000543 +0.904583 0
-0.035218 +0.534784 0
-0.008375 +0.508593 0
-0.114098 +0.836240 0
-0.103142 +0.347908 0
-0.069905 +0.475969 0
-0.221648 +0.296268 0
-0.122804 -0.001757 0
-0.123938 +0.177885 0
-0.178103 -0.301988 0
-0.041337 -0.276557 0
-0.094767 -0.160684 0
+0.043545 -0.598256 0
+0.103142 -0.347908 0
+0.029171 -0.338569 0
+0.292201 -0.534252 0
+0.199359 -0.256470 0
+0.164672 -0.315285 0
+0.356750 -0.300607 0
+0.158625 -0.119070 0
+0.197908 -0.187224 0
+0.159605 -0.086989 0
+0.088117 -0.057057 0
+0.065882 +0.469320 0
+0.054701 +0.868811 0
+0.038512 +0.478233 0
+0.094224 +1.065267 0
-0.026767 +1.143611 0
+0.033675 +1.102684 0
-0.066714 +0.916582 0
-0.206283 +0.695817 0
-0.114597 +0.994687 0
-0.269031 +0.215926 0
-0.289277 -0.077558 0
-0.273088 +0.313020 0
-0.272870 -0.462672 0
-0.126342 -0.627157 0
-0.239958 -0.406867 0
-0.003839 -0.678599 0
+0.206283 -0.695817 0
+0.033130 -0.719888 0
+0.339584 -0.453909 0
+0.442386 -0.438896 0
+0.354556 -0.587820 0
+0.451517 -0.139922 0
+0.360919 -0.164097 0
+0.446241 -0.288949 0
+0.206988 -0.006647 0
+0.201447 -0.071366 0
+0.119979 +0.203434 0
+0.159758 +0.658913 0
+0.095701 +0.368736 0
+0.239958 +0.406867 0
+0.119024 +0.796313 0
+0.169729 +0.810581 0
+0.119979 +0.203434 0
-0.103142 +0.347908 0
+0.019147 +0.626963 0
-0.119979 -0.203434 0
-0.277046 -0.263286 0
-0.212990 +0.026891 0
-0.239958 -0.406867 0
-0.195579 -0.538086 0
-0.272870 -0.462672 0
-0.119979 -0.203434 0
+0.103142 -0.347908 0
-0.059881 -0.489563 0
+0.119979 +0.203434 0
+0.353601 +0.005059 0
+0.253723 -0.164291 0
+0.239958 +0.406867 0
+0.312867 +0.142459 0
+0.376012 +0.114764 0
+0.119979 +0.203434 0
+0.177169 +0.093936 0
+0.117936 -0.157641 0
+0.230797 +0.003302 0
+0.129786 +0.013594 0
+0.273413 -0.441910 0
+0.271530 -0.134097 0
+0.281245 -0.045920 0
+0.250533 -0.604903 0
+0.103142 -0.347908 0
+0.206340 -0.244633 0
+0.085213 -0.527605 0
-0.113508 -0.398929 0
-0.012497 -0.409221 0
-0.094767 -0.160684 0
-0.194976 -0.124130 0
-0.178103 -0.301988 0
-0.179980 +0.366920 0
-0.103142 +0.347908 0
-0.165606 +0.107233 0
-0.155766 +0.765588 0
+0.036954 +0.657156 0
-0.028237 +0.546621 0
-0.083880 +0.763279 0
+0.077688 +0.519756 0
+0.074962 +0.649896 0
-0.023170 +0.318326 0
+0.048318 +0.288394 0
+0.023170 -0.318326 0
+0.153109 -0.516454 0
+0.081468 -0.274799 0
+0.083880 -0.763279 0
+0.234577 -0.791253 0
+0.206283 -0.695817 0
+0.155766 -0.765588 0
+0.206283 -0.695817 0
+0.234577 -0.791253 0
+0.179980 -0.366920 0
+0.081468 -0.274799 0
+0.153109 -0.516454 0
+0.094767 +0.160684 0
-0.081468 +0.274799 0
-0.000000 +0.000000 0
-0.085213 +0.527605 0
-0.206283 +0.695817 0
-0.153109 +0.516454 0
-0.250533 +0.604903 0
-0.234577 +0.791253 0
-0.234577 +0.791253 0
-0.273413 +0.441910 0
-0.153109 +0.516454 0
-0.206283 +0.695817 0
-0.117936 +0.157641 0
-0.081468 +0.274799 0
-0.119979 -0.203434 0
-0.077688 -0.519756 0
-0.048318 -0.288394 0
-0.239958 -0.406867 0
-0.036954 -0.657156 0
-0.074962 -0.649896 0
-0.119979 -0.203434 0
+0.103142 -0.347908 0
+0.028237 -0.546621 0
+0.119979 +0.203434 0
+0.194976 +0.124130 0
+0.165606 -0.107233 0
+0.239958 +0.406867 0
+0.113508 +0.398929 0
+0.178103 +0.301988 0
+0.119979 +0.203434 0
-0.103142 +0.347908 0
+0.012497 +0.409221 0
-0.119979 -0.203434 0
-0.271530 +0.134097 0
-0.206340 +0.244633 0
-0.239958 -0.406867 0
-0.230797 -0.003302 0
-0.281245 +0.045920 0
-0.119979 -0.203434 0
-0.129786 -0.013594 0
-0.206988 +0.006647 0
-0.312867 -0.142459 0
-0.177169 -0.093936 0
-0.451517 +0.139922 0
-0.353601 -0.005059 0
-0.376012 -0.114764 0
-0.339584 +0.453909 0
-0.103142 +0.347908 0
-0.253723 +0.164291 0
+0.003839 +0.678599 0
+0.195579 +0.538086 0
+0.059881 +0.489563 0
+0.272870 +0.462672 0
+0.277046 +0.263286 0
+0.272870 +0.462672 0
+0.269031 -0.215926 0
+0.103142 -0.347908 0
+0.212990 -0.026891 0
+0.066714 -0.916582 0
-0.119024 -0.796313 0
-0.019147 -0.626963 0
-0.094224 -1.065267 0
-0.159758 -0.658913 0
-0.169729 -0.810581 0
-0.065882 -0.469320 0
-0.095701 -0.368736 0
-0.159605 +0.086989 0
-0.360919 +0.164097 0
-0.201447 +0.071366 0
-0.356750 +0.300607 0
-0.442386 +0.438896 0
-0.446241 +0.288949 0
-0.292201 +0.534252 0
-0.206283 +0.695817 0
-0.354556 +0.587820 0
-0.043545 +0.598256 0
+0.126342 +0.627157 0
-0.033130 +0.719888 0
+0.178103 +0.301988 0
+0.289277 +0.077558 0
+0.239958 +0.406867 0
+0.221648 -0.296268 0
+0.206283 -0.695817 0
+0.273088 -0.313020 0
+0.114098 -0.836240 0
+0.026767 -1.143611 0
+0.114597 -0.994687 0
+0.000543 -0.904583 0
-0.054701 -0.868811 0
-0.033675 -1.102684 0
-0.018499 -0.388977 0
-0.038512 -0.478233 0
-0.158625 +0.119070 0
-0.088117 +0.057057 0
-0.199359 +0.256470 0
-0.197908 +0.187224 0
-0.103142 +0.347908 0
-0.164672 +0.315285 0
+0.041337 +0.276557 0
-0.029171 +0.338569 0
+0.122804 +0.001757 0
+0.094767 +0.160684 0
+0.103142 -0.347908 0
+0.123938 -0.177885 0
+0.035218 -0.534784 0
+0.069905 -0.475969 0
-0.005516 -0.397384 0
+0.008375 -0.508593 0
-0.006650 -0.217742 0
+0.003847 +0.111385 0
+0.002973 +0.111951 0
+0.010278 +0.199054 0
+0.011669 +0.311867 0
+0.022801 +0.561633 0
+0.011721 +0.568808 0
+0.007462 +0.314591 0
+0.002042 +0.204387 0
+0.000302 +0.463107 0
-0.005276 +0.261757 0
+0.014013 +0.825000 0
-0.007323 +0.727158 0
-0.021820 +0.945869 0
-0.045903 +0.763182 0
-0.020387 +0.532891 0
-0.019050 +0.275533 0
-0.052107 +0.515525 0
-0.036667 +0.245661 0
-0.080376 +0.909661 0
-0.096630 +0.677171 0
-0.147798 +0.732263 0
-0.145911 +0.492173 0
-0.087418 +0.419233 0
-0.053407 +0.180148 0
-0.115801 +0.266247 0
-0.063706 +0.092906 0
-0.204187 +0.455024 0
-0.177593 +0.247811 0
-0.229155 +0.134422 0
-0.177645 -0.009129 0
-0.126601 +0.087277 0
-0.062775 +0.000470 0
-0.112255 -0.085475 0
-0.048131 -0.081610 0
-0.207922 -0.170922 0
-0.138587 -0.234985 0
-0.136256 -0.412659 0
-0.062396 -0.397878 0
-0.070879 -0.225042 0
-0.020591 -0.141822 0
-0.007462 -0.314591 0
+0.015575 -0.174515 0
-0.022801 -0.561633 0
+0.039005 -0.482797 0
+0.111965 -0.611394 0
+0.145911 -0.492173 0
+0.066730 -0.349450 0
+0.053407 -0.180148 0
+0.136489 -0.336031 0
+0.084798 -0.164052 0
+0.240020 -0.575893 0
+0.235217 -0.442186 0
+0.332332 -0.482450 0
+0.285944 -0.356175 0
+0.186170 -0.288210 0
+0.102415 -0.134181 0
+0.203520 -0.222373 0
+0.101538 -0.098538 0
+0.365999 -0.362287 0
+0.284498 -0.257188 0
+0.330166 -0.241419 0
+0.228319 -0.161801 0
+0.182832 -0.152590 0
+0.081323 -0.063035 0
+0.126601 -0.087277 0
+0.045158 -0.030341 0
+0.229155 -0.134422 0
+0.126918 -0.076882 0
+0.081944 -0.042684 0
+0.045223 -0.028182 0
+0.020749 +0.244906 0
+0.027447 +0.445530 0
+0.034814 +0.240655 0
+0.051513 +0.486334 0
+0.089833 +0.675290 0
+0.077625 +0.881476 0
+0.050591 +0.689658 0
+0.035943 +0.810800 0
+0.049325 +1.008825 0
+0.013011 +1.032339 0
+0.105580 +0.980258 0
+0.061142 +1.113949 0
+0.069747 +1.101127 0
-0.001091 +1.146996 0
+0.007948 +1.148393 0
-0.042774 +1.076320 0
-0.068547 +1.091525 0
-0.120491 +0.944544 0
-0.013344 +1.023318 0
-0.096426 +0.985349 0
-0.123263 +0.773864 0
-0.199318 +0.672321 0
-0.161782 +0.860603 0
-0.199318 +0.672321 0
-0.244656 +0.510358 0
-0.254103 +0.319005 0
-0.228723 +0.413423 0
-0.278168 +0.278201 0
-0.296187 +0.020765 0
-0.304281 -0.116941 0
-0.288868 +0.114078 0
-0.262598 -0.046265 0
-0.273232 -0.253561 0
-0.212328 -0.360019 0
-0.299489 -0.326181 0
-0.260459 -0.441628 0
-0.227823 -0.567918 0
-0.146848 -0.647982 0
-0.190479 -0.532696 0
-0.105165 -0.577306 0
-0.050591 -0.689658 0
+0.041775 -0.679024 0
-0.089833 -0.675290 0
+0.017709 -0.719829 0
+0.087430 -0.652996 0
+0.199318 -0.672321 0
+0.120405 -0.721035 0
+0.199318 -0.672321 0
+0.286033 -0.649926 0
+0.332820 -0.584526 0
+0.264556 -0.534291 0
+0.356885 -0.543721 0
+0.399364 -0.368792 0
+0.452220 -0.382074 0
+0.408007 -0.515945 0
+0.410537 -0.452750 0
+0.455763 -0.362136 0
+0.411646 -0.312302 0
+0.457566 -0.207029 0
+0.459777 -0.230693 0
+0.421733 -0.086160 0
+0.373503 -0.116554 0
+0.414386 -0.222568 0
+0.331821 -0.187229 0
+0.288868 -0.114078 0
+0.184881 -0.085511 0
+0.296187 -0.020765 0
+0.208946 -0.044706 0
+0.106479 -0.001082 0
+0.103502 -0.034229 0
+0.049958 +0.189570 0
+0.080963 +0.429360 0
+0.062125 +0.105338 0
+0.109138 +0.291960 0
+0.169730 +0.287790 0
+0.185924 +0.516172 0
+0.133441 +0.528197 0
+0.131742 +0.772311 0
+0.172391 +0.754898 0
+0.131264 +0.962144 0
+0.231855 +0.393129 0
+0.207052 +0.621776 0
+0.231855 +0.393129 0
+0.164832 +0.587318 0
+0.151703 +0.824681 0
+0.074117 +0.966685 0
+0.073871 +0.729130 0
-0.027336 +0.794664 0
+0.169730 +0.287790 0
+0.069497 +0.425671 0
+0.062125 +0.105338 0
-0.053407 +0.180148 0
-0.041307 +0.497419 0
-0.145911 +0.492173 0
-0.161912 +0.188062 0
-0.246886 +0.130319 0
-0.062125 -0.105338 0
-0.169870 -0.087104 0
-0.169730 -0.287790 0
-0.246656 -0.311315 0
-0.252579 -0.126329 0
-0.297665 -0.212633 0
-0.284344 -0.377266 0
-0.277175 -0.469971 0
-0.231855 -0.393129 0
-0.260459 -0.441628 0
-0.231855 -0.393129 0
-0.204472 -0.453607 0
-0.242968 -0.516833 0
-0.182416 -0.601381 0
-0.133441 -0.528197 0
-0.030289 -0.600290 0
-0.169730 -0.287790 0
-0.090589 -0.354525 0
-0.062125 -0.105338 0
+0.053407 -0.180148 0
+0.020619 -0.427635 0
+0.145911 -0.492173 0
+0.182600 -0.257846 0
+0.304511 -0.324693 0
+0.062125 +0.105338 0
+0.190962 +0.015958 0
+0.169730 +0.287790 0
+0.286296 +0.177605 0
+0.312148 -0.074605 0
+0.405964 -0.152672 0
+0.375610 +0.069417 0
+0.423085 -0.022202 0
+0.231855 +0.393129 0
+0.313866 +0.261480 0
+0.231855 +0.393129 0
+0.265204 +0.248751 0
+0.354922 +0.139201 0
+0.348339 +0.041703 0
+0.252579 +0.126329 0
+0.196212 +0.040611 0
+0.169730 +0.287790 0
+0.151322 +0.149668 0
+0.062125 +0.105338 0
+0.091335 +0.050003 0
+0.066799 +0.008401 0
+0.127256 +0.108863 0
+0.060368 -0.079267 0
+0.126918 -0.076882 0
+0.170209 -0.234370 0
+0.228319 -0.161801 0
+0.185547 +0.012672 0
+0.223522 +0.178075 0
+0.263355 -0.016058 0
+0.265735 +0.179871 0
+0.249643 -0.377951 0
+0.284498 -0.257188 0
+0.285476 -0.498819 0
+0.285944 -0.356175 0
+0.284043 -0.085841 0
+0.244614 +0.106929 0
+0.245117 -0.188262 0
+0.166896 -0.024847 0
+0.273385 -0.582398 0
+0.235217 -0.442186 0
+0.218445 -0.612477 0
+0.145911 -0.492173 0
+0.158065 -0.299447 0
+0.053407 -0.180148 0
+0.045154 -0.386034 0
-0.066524 -0.313720 0
+0.133541 -0.574811 0
+0.039005 -0.482797 0
+0.036145 -0.461685 0
-0.062396 -0.397878 0
-0.066409 -0.414539 0
-0.162790 -0.382931 0
-0.151401 -0.361574 0
-0.212328 -0.360019 0
-0.055734 -0.276127 0
-0.138587 -0.234985 0
-0.127400 -0.034390 0
-0.177645 -0.009129 0
-0.192778 -0.222007 0
-0.204974 -0.240639 0
-0.185547 -0.012672 0
-0.145804 -0.046299 0
-0.170209 +0.234370 0
-0.177593 +0.247811 0
-0.182612 +0.491608 0
-0.145911 +0.492173 0
-0.137377 +0.229663 0
-0.053407 +0.180148 0
-0.065842 +0.455817 0
+0.045432 +0.384866 0
-0.169374 +0.695679 0
-0.096630 +0.677171 0
-0.139322 +0.809712 0
-0.045903 +0.763182 0
+0.006840 +0.615473 0
+0.123149 +0.516642 0
+0.060136 +0.669423 0
+0.158921 +0.540166 0
-0.102342 +0.809337 0
-0.007323 +0.727158 0
-0.066509 +0.688468 0
+0.011721 +0.568808 0
+0.080824 +0.599639 0
+0.144242 +0.445496 0
+0.066409 +0.414539 0
+0.085072 +0.251155 0
-0.036145 +0.461685 0
+0.011669 +0.311867 0
-0.011298 +0.162470 0
+0.025423 +0.147969 0
+0.041376 -0.139567 0
+0.102782 -0.224715 0
+0.011298 -0.162470 0
+0.054651 -0.306325 0
+0.036145 -0.461685 0
+0.106256 -0.569691 0
+0.119138 -0.401868 0
+0.189621 -0.428339 0
+0.182531 -0.615697 0
+0.247448 -0.590711 0
+0.066509 -0.688468 0
+0.151187 -0.753930 0
+0.102342 -0.809337 0
+0.184973 -0.835211 0
+0.223907 -0.755264 0
+0.268338 -0.693859 0
+0.238277 -0.803735 0
+0.250721 -0.723730 0
+0.139322 -0.809712 0
+0.202590 -0.805340 0
+0.169374 -0.695679 0
+0.199318 -0.672321 0
+0.223907 -0.755264 0
+0.199318 -0.672321 0
+0.182531 -0.615697 0
+0.123873 -0.539820 0
+0.182612 -0.491608 0
+0.172004 -0.458210 0
+0.170209 -0.234370 0
+0.120399 -0.194844 0
+0.119138 -0.401868 0
+0.037034 -0.336196 0
+0.041376 -0.139567 0
-0.048131 -0.081610 0
+0.127400 +0.034390 0
+0.048131 +0.081610 0
+0.055734 +0.276127 0
-0.037034 +0.336196 0
-0.041376 +0.139567 0
-0.120399 +0.194844 0
-0.119138 +0.401868 0
-0.172004 +0.458210 0
-0.036145 +0.461685 0
-0.123873 +0.539820 0
-0.133541 +0.574811 0
-0.199318 +0.672321 0
-0.182531 +0.615697 0
-0.199318 +0.672321 0
-0.223907 +0.755264 0
-0.202590 +0.805340 0
-0.218445 +0.612477 0
-0.250721 +0.723730 0
-0.273385 +0.582398 0
-0.268338 +0.693859 0
-0.238277 +0.803735 0
-0.184973 +0.835211 0
-0.223907 +0.755264 0
-0.151187 +0.753930 0
-0.285476 +0.498819 0
-0.247448 +0.590711 0
-0.249643 +0.377951 0
-0.189621 +0.428339 0
-0.182531 +0.615697 0
-0.106256 +0.569691 0
-0.119138 +0.401868 0
-0.054651 +0.306325 0
-0.170209 +0.234370 0
-0.102782 +0.224715 0
-0.060368 +0.079267 0
-0.041376 +0.139567 0
-0.025423 -0.147969 0
-0.011669 -0.311867 0
-0.062125 -0.105338 0
-0.085072 -0.251155 0
-0.169730 -0.287790 0
-0.144242 -0.445496 0
-0.066409 -0.414539 0
-0.011721 -0.568808 0
-0.080824 -0.599639 0
+0.007323 -0.727158 0
-0.231855 -0.393129 0
-0.158921 -0.540166 0
-0.231855 -0.393129 0
-0.123149 -0.516642 0
-0.060136 -0.669423 0
+0.045903 -0.763182 0
-0.006840 -0.615473 0
+0.096630 -0.677171 0
-0.169730 -0.287790 0
-0.045432 -0.384866 0
-0.062125 -0.105338 0
+0.053407 -0.180148 0
+0.065842 -0.455817 0
+0.145911 -0.492173 0
+0.137377 -0.229663 0
+0.177593 -0.247811 0
+0.062125 +0.105338 0
+0.145804 +0.046299 0
+0.169730 +0.287790 0
+0.204974 +0.240639 0
+0.185547 +0.012672 0
+0.177645 +0.009129 0
+0.192778 +0.222007 0
+0.138587 +0.234985 0
+0.231855 +0.393129 0
+0.212328 +0.360019 0
+0.231855 +0.393129 0
+0.162790 +0.382931 0
+0.151401 +0.361574 0
+0.062396 +0.397878 0
+0.066409 +0.414539 0
-0.039005 +0.482797 0
+0.169730 +0.287790 0
+0.066524 +0.313720 0
+0.062125 +0.105338 0
-0.053407 +0.180148 0
-0.045154 +0.386034 0
-0.145911 +0.492173 0
-0.158065 +0.299447 0
-0.235217 +0.442186 0
-0.062125 -0.105338 0
-0.166896 +0.024847 0
-0.169730 -0.287790 0
-0.244614 -0.106929 0
-0.245117 +0.188262 0
-0.285944 +0.356175 0
-0.284043 +0.085841 0
-0.284498 +0.257188 0
-0.231855 -0.393129 0
-0.265735 -0.179871 0
-0.231855 -0.393129 0
-0.223522 -0.178075 0
-0.263355 +0.016058 0
-0.228319 +0.161801 0
-0.185547 -0.012672 0
-0.126918 +0.076882 0
-0.169730 -0.287790 0
-0.127256 -0.108863 0
-0.062125 -0.105338 0
-0.066799 -0.008401 0
-0.091335 -0.050003 0
-0.151322 -0.149668 0
-0.106479 +0.001082 0
-0.196212 -0.040611 0
-0.296187 +0.020765 0
-0.348339 -0.041703 0
-0.252579 -0.126329 0
-0.265204 -0.248751 0
-0.354922 -0.139201 0
-0.313866 -0.261480 0
-0.421733 +0.086160 0
-0.423085 +0.022202 0
-0.457566 +0.207029 0
-0.405964 +0.152672 0
-0.375610 -0.069417 0
-0.286296 -0.177605 0
-0.312148 +0.074605 0
-0.190962 -0.015958 0
-0.399364 +0.368792 0
-0.304511 +0.324693 0
-0.264556 +0.534291 0
-0.145911 +0.492173 0
-0.182600 +0.257846 0
-0.053407 +0.180148 0
-0.020619 +0.427635 0
+0.090589 +0.354525 0
-0.087430 +0.652996 0
+0.030289 +0.600290 0
+0.089833 +0.675290 0
+0.182416 +0.601381 0
+0.133441 +0.528197 0
+0.204472 +0.453607 0
+0.242968 +0.516833 0
+0.260459 +0.441628 0
+0.227823 +0.567918 0
+0.277175 +0.469971 0
+0.299489 +0.326181 0
+0.297665 +0.212633 0
+0.284344 +0.377266 0
+0.246656 +0.311315 0
+0.252579 +0.126329 0
+0.169870 +0.087104 0
+0.296187 -0.020765 0
+0.246886 -0.130319 0
+0.228723 -0.413423 0
+0.145911 -0.492173 0
+0.161912 -0.188062 0
+0.053407 -0.180148 0
+0.041307 -0.497419 0
-0.069497 -0.425671 0
+0.123263 -0.773864 0
+0.027336 -0.794664 0
+0.013344 -1.023318 0
-0.074117 -0.966685 0