# vtk DataFile Version 2.0
MyTitle
ASCII
DATASET UNSTRUCTURED_GRID
POINTS 2165 double
2.000000 -1.000000 0.000000
2.000000 1.000000 0.000000
-2.000000 1.000000 0.000000
-2.000000 -1.000000 0.000000
2.000000 -0.888889 0.000000
2.000000 -0.777778 0.000000
2.000000 -0.666667 0.000000
2.000000 -0.555556 0.000000
2.000000 -0.444444 0.000000
2.000000 -0.333333 0.000000
2.000000 -0.222222 0.000000
2.000000 -0.111111 0.000000
2.000000 -0.000000 0.000000
2.000000 0.111111 0.000000
2.000000 0.222222 0.000000
2.000000 0.333333 0.000000
2.000000 0.444444 0.000000
2.000000 0.555556 0.000000
2.000000 0.666667 0.000000
2.000000 0.777778 0.000000
2.000000 0.888889 0.000000
2.000000 -0.944444 0.000000
2.000000 -0.833333 0.000000
2.000000 -0.722222 0.000000
2.000000 -0.611111 0.000000
2.000000 -0.500000 0.000000
2.000000 -0.388889 0.000000
2.000000 -0.277778 0.000000
2.000000 -0.166667 0.000000
2.000000 -0.055556 0.000000
2.000000 0.055556 0.000000
2.000000 0.166667 0.000000
2.000000 0.277778 0.000000
2.000000 0.388889 0.000000
2.000000 0.500000 0.000000
2.000000 0.611111 0.000000
2.000000 0.722222 0.000000
2.000000 0.833333 0.000000
2.000000 0.944444 0.000000
1.894737 1.000000 0.000000
1.789474 1.000000 0.000000
1.684211 1.000000 0.000000
1.578947 1.000000 0.000000
1.473684 1.000000 0.000000
1.368421 1.000000 0.000000
1.263158 1.000000 0.000000
1.157895 1.000000 0.000000
1.052632 1.000000 0.000000
0.947368 1.000000 0.000000
0.842105 1.000000 0.000000
0.736842 1.000000 0.000000
0.631579 1.000000 0.000000
0.526316 1.000000 0.000000
0.421053 1.000000 0.000000
0.315789 1.000000 0.000000
0.210526 1.000000 0.000000
0.105263 1.000000 0.000000
0.000000 1.000000 0.000000
-0.105263 1.000000 0.000000
-0.210526 1.000000 0.000000
-0.315789 1.000000 0.000000
-0.421053 1.000000 0.000000
-0.526316 1.000000 0.000000
-0.631579 1.000000 0.000000
-0.736842 1.000000 0.000000
-0.842105 1.000000 0.000000
-0.947368 1.000000 0.000000
-1.052632 1.000000 0.000000
-1.157895 1.000000 0.000000
-1.263158 1.000000 0.000000
-1.368421 1.000000 0.000000
-1.473684 1.000000 0.000000
-1.578947 1.000000 0.000000
-1.684211 1.000000 0.000000
-1.789474 1.000000 0.000000
-1.894737 1.000000 0.000000
1.947368 1.000000 0.000000
1.842105 1.000000 0.000000
1.736842 1.000000 0.000000
1.631579 1.000000 0.000000
1.526316 1.000000 0.000000
1.421053 1.000000 0.000000
1.315789 1.000000 0.000000
1.210526 1.000000 0.000000
1.105263 1.000000 0.000000
1.000000 1.000000 0.000000
0.894737 1.000000 0.000000
0.789474 1.000000 0.000000
0.684211 1.000000 0.000000
0.578947 1.000000 0.000000
0.473684 1.000000 0.000000
0.368421 1.000000 0.000000
0.263158 1.000000 0.000000
0.157895 1.000000 0.000000
0.052632 1.000000 0.000000
-0.052632 1.000000 0.000000
-0.157895 1.000000 0.000000
-0.263158 1.000000 0.000000
-0.368421 1.000000 0.000000
-0.473684 1.000000 0.000000
-0.578947 1.000000 0.000000
-0.684211 1.000000 0.000000
-0.789474 1.000000 0.000000
-0.894737 1.000000 0.000000
-1.000000 1.000000 0.000000
-1.105263 1.000000 0.000000
-1.210526 1.000000 0.000000
-1.315789 1.000000 0.000000
-1.421053 1.000000 0.000000
-1.526316 1.000000 0.000000
-1.631579 1.000000 0.000000
-1.736842 1.000000 0.000000
-1.842105 1.000000 0.000000
-1.947368 1.000000 0.000000
-2.000000 0.888889 0.000000
-2.000000 0.777778 0.000000
-2.000000 0.666667 0.000000
-2.000000 0.555556 0.000000
-2.000000 0.444444 0.000000
-2.000000 0.333333 0.000000
-2.000000 0.222222 0.000000
-2.000000 0.111111 0.000000
-2.000000 0.000000 0.000000
-2.000000 -0.111111 0.000000
-2.000000 -0.222222 0.000000
-2.000000 -0.333333 0.000000
-2.000000 -0.444444 0.000000
-2.000000 -0.555556 0.000000
-2.000000 -0.666667 0.000000
-2.000000 -0.777778 0.000000
-2.000000 -0.888889 0.000000
-2.000000 0.944444 0.000000
-2.000000 0.833333 0.000000
-2.000000 0.722222 0.000000
-2.000000 0.611111 0.000000
-2.000000 0.500000 0.000000
-2.000000 0.388889 0.000000
-2.000000 0.277778 0.000000
-2.000000 0.166667 0.000000
-2.000000 0.055556 0.000000
-2.000000 -0.055556 0.000000
-2.000000 -0.166667 0.000000
-2.000000 -0.277778 0.000000
-2.000000 -0.388889 0.000000
-2.000000 -0.500000 0.000000
-2.000000 -0.611111 0.000000
-2.000000 -0.722222 0.000000
-2.000000 -0.833333 0.000000
-2.000000 -0.944444 0.000000
-1.894737 -1.000000 0.000000
-1.789474 -1.000000 0.000000
-1.684211 -1.000000 0.000000
-1.578947 -1.000000 0.000000
-1.473684 -1.000000 0.000000
-1.368421 -1.000000 0.000000
-1.263158 -1.000000 0.000000
-1.157895 -1.000000 0.000000
-1.052632 -1.000000 0.000000
-0.947368 -1.000000 0.000000
-0.842105 -1.000000 0.000000
-0.736842 -1.000000 0.000000
-0.631579 -1.000000 0.000000
-0.526316 -1.000000 0.000000
-0.421053 -1.000000 0.000000
-0.315789 -1.000000 0.000000
-0.210526 -1.000000 0.000000
-0.105263 -1.000000 0.000000
-0.000000 -1.000000 0.000000
0.105263 -1.000000 0.000000
0.210526 -1.000000 0.000000
0.315789 -1.000000 0.000000
0.421053 -1.000000 0.000000
0.526316 -1.000000 0.000000
0.631579 -1.000000 0.000000
0.736842 -1.000000 0.000000
0.842105 -1.000000 0.000000
0.947368 -1.000000 0.000000
1.052632 -1.000000 0.000000
1.157895 -1.000000 0.000000
1.263158 -1.000000 0.000000
1.368421 -1.000000 0.000000
1.473684 -1.000000 0.000000
1.578947 -1.000000 0.000000
1.684211 -1.000000 0.000000
1.789474 -1.000000 0.000000
1.894737 -1.000000 0.000000
-1.947368 -1.000000 0.000000
-1.842105 -1.000000 0.000000
-1.736842 -1.000000 0.000000
-1.631579 -1.000000 0.000000
-1.526316 -1.000000 0.000000
-1.421053 -1.000000 0.000000
-1.315789 -1.000000 0.000000
-1.210526 -1.000000 0.000000
-1.105263 -1.000000 0.000000
-1.000000 -1.000000 0.000000
-0.894737 -1.000000 0.000000
-0.789474 -1.000000 0.000000
-0.684211 -1.000000 0.000000
-0.578947 -1.000000 0.000000
-0.473684 -1.000000 0.000000
-0.368421 -1.000000 0.000000
-0.263158 -1.000000 0.000000
-0.157895 -1.000000 0.000000
-0.052632 -1.000000 0.000000
0.052632 -1.000000 0.000000
0.157895 -1.000000 0.000000
0.263158 -1.000000 0.000000
0.368421 -1.000000 0.000000
0.473684 -1.000000 0.000000
0.578947 -1.000000 0.000000
0.684211 -1.000000 0.000000
0.789474 -1.000000 0.000000
0.894737 -1.000000 0.000000
1.000000 -1.000000 0.000000
1.105263 -1.000000 0.000000
1.210526 -1.000000 0.000000
1.315789 -1.000000 0.000000
1.421053 -1.000000 0.000000
1.526316 -1.000000 0.000000
1.631579 -1.000000 0.000000
1.736842 -1.000000 0.000000
1.842105 -1.000000 0.000000
1.947368 -1.000000 0.000000
-1.789474 0.777778 0.000000
-1.578947 0.777778 0.000000
-1.368421 0.777778 0.000000
-1.157895 0.777778 0.000000
-0.947368 0.777778 0.000000
-0.736842 0.777778 0.000000
-0.526316 0.777778 0.000000
-0.315789 0.777778 0.000000
-0.105263 0.777778 0.000000
0.105263 0.777778 0.000000
0.315789 0.777778 0.000000
0.526316 0.777778 0.000000
0.736842 0.777778 0.000000
0.947368 0.777778 0.000000
1.157895 0.777778 0.000000
1.368421 0.777778 0.000000
1.578947 0.777778 0.000000
1.789474 0.777778 0.000000
-1.789474 0.555556 0.000000
-1.578947 0.555556 0.000000
-1.368421 0.555556 0.000000
-1.157895 0.555556 0.000000
-0.947368 0.555556 0.000000
-0.736842 0.555556 0.000000
-0.526316 0.555556 0.000000
-0.315789 0.555556 0.000000
-0.105263 0.555556 0.000000
0.105263 0.555556 0.000000
0.315789 0.555556 0.000000
0.526316 0.555556 0.000000
0.736842 0.555556 0.000000
0.947368 0.555556 0.000000
1.157895 0.555556 0.000000
1.368421 0.555556 0.000000
1.578947 0.555556 0.000000
1.789474 0.555556 0.000000
-1.789474 0.333333 0.000000
-1.578947 0.333333 0.000000
-1.368421 0.333333 0.000000
-1.157895 0.333333 0.000000
-0.947368 0.333333 0.000000
-0.736842 0.333333 0.000000
-0.526316 0.333333 0.000000
-0.315789 0.333333 0.000000
-0.105263 0.333333 0.000000
0.105263 0.333333 0.000000
0.315789 0.333333 0.000000
0.526316 0.333333 0.000000
0.736842 0.333333 0.000000
0.947368 0.333333 0.000000
1.157895 0.333333 0.000000
1.368421 0.333333 0.000000
1.578947 0.333333 0.000000
1.789474 0.333333 0.000000
-1.789474 0.111111 0.000000
-1.578947 0.111111 0.000000
-1.368421 0.111111 0.000000
-1.157895 0.111111 0.000000
-0.947368 0.111111 0.000000
-0.736842 0.111111 0.000000
-0.526316 0.111111 0.000000
-0.315789 0.111111 0.000000
-0.105263 0.111111 0.000000
0.105263 0.111111 0.000000
0.315789 0.111111 0.000000
0.526316 0.111111 0.000000
0.736842 0.111111 0.000000
0.947368 0.111111 0.000000
1.157895 0.111111 0.000000
1.368421 0.111111 0.000000
1.578947 0.111111 0.000000
1.789474 0.111111 0.000000
-1.789474 -0.111111 0.000000
-1.578947 -0.111111 0.000000
-1.368421 -0.111111 0.000000
-1.157895 -0.111111 0.000000
-0.947368 -0.111111 0.000000
-0.736842 -0.111111 0.000000
-0.526316 -0.111111 0.000000
-0.315789 -0.111111 0.000000
-0.105263 -0.111111 0.000000
0.105263 -0.111111 0.000000
0.315789 -0.111111 0.000000
0.526316 -0.111111 0.000000
0.736842 -0.111111 0.000000
0.947368 -0.111111 0.000000
1.157895 -0.111111 0.000000
1.368421 -0.111111 0.000000
1.578947 -0.111111 0.000000
1.789474 -0.111111 0.000000
-1.789474 -0.333333 0.000000
-1.578947 -0.333333 0.000000
-1.368421 -0.333333 0.000000
-1.157895 -0.333333 0.000000
-0.947368 -0.333333 0.000000
-0.736842 -0.333333 0.000000
-0.526316 -0.333333 0.000000
-0.315789 -0.333333 0.000000
-0.105263 -0.333333 0.000000
0.105263 -0.333333 0.000000
0.315789 -0.333333 0.000000
0.526316 -0.333333 0.000000
0.736842 -0.333333 0.000000
0.947368 -0.333333 0.000000
1.157895 -0.333333 0.000000
1.368421 -0.333333 0.000000
1.578947 -0.333333 0.000000
1.789474 -0.333333 0.000000
-1.789474 -0.555556 0.000000
-1.578947 -0.555556 0.000000
-1.368421 -0.555556 0.000000
-1.157895 -0.555556 0.000000
-0.947368 -0.555556 0.000000
-0.736842 -0.555556 0.000000
-0.526316 -0.555556 0.000000
-0.315789 -0.555556 0.000000
-0.105263 -0.555556 0.000000
0.105263 -0.555556 0.000000
0.315789 -0.555556 0.000000
0.526316 -0.555556 0.000000
0.736842 -0.555556 0.000000
0.947368 -0.555556 0.000000
1.157895 -0.555556 0.000000
1.368421 -0.555556 0.000000
1.578947 -0.555556 0.000000
1.789474 -0.555556 0.000000
-1.789474 -0.777778 0.000000
-1.578947 -0.777778 0.000000
-1.368421 -0.777778 0.000000
-1.157895 -0.777778 0.000000
[...]
POINT_DATA 2165
VECTORS sol double
+0.000000 +0.000000 0
+0.000000 +0.000000 0
+0.000000 +0.000000 0
+0.000000 +0.000000 0
+0.000000 +0.000000 0
+0.000000 +0.000000 0
+0.000000 +0.000000 0
+0.000000 +0.000000 0
+0.000000 +0.000000 0
+0.000000 +0.000000 0
+0.000000 +0.000000 0
+0.000000 +0.000000 0
+0.000000 +0.000000 0
+0.000000 +0.000000 0
+0.000000 +0.000000 0
+0.000000 +0.000000 0
+0.000000 +0.000000 0
+0.000000 +0.000000 0
+0.000000 +0.000000 0
+0.000000 +0.000000 0
+0.000000 +0.000000 0
+0.000000 +0.000000 0
+0.000000 +0.000000 0
+0.000000 +0.000000 0
+0.000000 +0.000000 0
+0.000000 +0.000000 0
+0.000000 +0.000000 0
+0.000000 +0.000000 0
+0.000000 +0.000000 0
+0.000000 +0.000000 0
+0.000000 +0.000000 0
+0.000000 +0.000000 0
+0.000000 +0.000000 0
+0.000000 +0.000000 0
+0.000000 +0.000000 0
+0.000000 +0.000000 0
+0.000000 +0.000000 0
+0.000000 +0.000000 0
+0.000000 +0.000000 0
+0.000000 +0.000000 0
+0.000000 +0.000000 0
+0.000000 +0.000000 0
+0.000000 +0.000000 0
+0.000000 +0.000000 0
+0.000000 +0.000000 0
+0.000000 +0.000000 0
+0.000000 +0.000000 0
+0.000000 +0.000000 0
+0.000000 +0.000000 0
+0.000000 +0.000000 0
+0.000000 +0.000000 0
+0.000000 +0.000000 0
+0.000000 +0.000000 0
+0.000000 +0.000000 0
+0.000000 +0.000000 0
+0.000000 +0.000000 0
+0.000000 +0.000000 0
+0.000000 +0.000000 0
+0.000000 +0.000000 0
+0.000000 +0.000000 0
+0.000000 +0.000000 0
+0.000000 +0.000000 0
+0.000000 +0.000000 0
+0.000000 +0.000000 0
+0.000000 +0.000000 0
+0.000000 +0.000000 0
+0.000000 +0.000000 0
+0.000000 +0.000000 0
+0.000000 +0.000000 0
+0.000000 +0.000000 0
+0.000000 +0.000000 0
+0.000000 +0.000000 0
+0.000000 +0.000000 0
+0.000000 +0.000000 0
+0.000000 +0.000000 0
+0.000000 +0.000000 0
+0.000000 +0.000000 0
+0.000000 +0.000000 0
+0.000000 +0.000000 0
+0.000000 +0.000000 0
+0.000000 +0.000000 0
+0.000000 +0.000000 0
+0.000000 +0.000000 0
+0.000000 +0.000000 0
+0.000000 +0.000000 0
+0.000000 +0.000000 0
+0.000000 +0.000000 0
+0.000000 +0.000000 0
+0.000000 +0.000000 0
+0.000000 +0.000000 0
+0.000000 +0.000000 0
+0.000000 +0.000000 0
+0.000000 +0.000000 0
+0.000000 +0.000000 0
+0.000000 +0.000000 0
+0.000000 +0.000000 0
+0.000000 +0.000000 0
+0.000000 +0.000000 0
+0.000000 +0.000000 0
+0.000000 +0.000000 0
+0.000000 +0.000000 0
+0.000000 +0.000000 0
+0.000000 +0.000000 0
+0.000000 +0.000000 0
+0.000000 +0.000000 0
+0.000000 +0.000000 0
+0.000000 +0.000000 0
+0.000000 +0.000000 0
+0.000000 +0.000000 0
+0.000000 +0.000000 0
+0.000000 +0.000000 0
+0.000000 +0.000000 0
+0.000000 +0.000000 0
+0.000000 +0.000000 0
+0.000000 +0.000000 0
+0.000000 +0.000000 0
+0.000000 +0.000000 0
+0.000000 +0.000000 0
+0.000000 +0.000000 0
+0.000000 +0.000000 0
+0.000000 +0.000000 0
+0.000000 +0.000000 0
+0.000000 +0.000000 0
+0.000000 +0.000000 0
+0.000000 +0.000000 0
+0.000000 +0.000000 0
+0.000000 +0.000000 0
+0.000000 +0.000000 0
+0.000000 +0.000000 0
+0.000000 +0.000000 0
+0.000000 +0.000000 0
+0.000000 +0.000000 0
+0.000000 +0.000000 0
+0.000000 +0.000000 0
+0.000000 +0.000000 0
+0.000000 +0.000000 0
+0.000000 +0.000000 0
+0.000000 +0.000000 0
+0.000000 +0.000000 0
+0.000000 +0.000000 0
+0.000000 +0.000000 0
+0.000000 +0.000000 0
+0.000000 +0.000000 0
+0.000000 +0.000000 0
+0.000000 +0.000000 0
+0.000000 +0.000000 0
+0.000000 +0.000000 0
+0.000000 +0.000000 0
+0.000000 +0.000000 0
+0.000000 +0.000000 0
+0.000000 +0.000000 0
+0.000000 +0.000000 0
+0.000000 +0.000000 0
+0.000000 +0.000000 0
+0.000000 +0.000000 0
+0.000000 +0.000000 0
+0.000000 +0.000000 0
+0.000000 +0.000000 0
+0.000000 +0.000000 0
+0.000000 +0.000000 0
+0.000000 +0.000000 0
+0.000000 +0.000000 0
+0.000000 +0.000000 0
+0.000000 +0.000000 0
+0.000000 +0.000000 0
+0.000000 +0.000000 0
+0.000000 +0.000000 0
+0.000000 +0.000000 0
+0.000000 +0.000000 0
+0.000000 +0.000000 0
+0.000000 +0.000000 0
+0.000000 +0.000000 0
+0.000000 +0.000000 0
+0.000000 +0.000000 0
+0.000000 +0.000000 0
+0.000000 +0.000000 0
+0.000000 +0.000000 0
+0.000000 +0.000000 0
+0.000000 +0.000000 0
+0.000000 +0.000000 0
+0.000000 +0.000000 0
+0.000000 +0.000000 0
+0.000000 +0.000000 0
+0.000000 +0.000000 0
+0.000000 +0.000000 0
+0.000000 +0.000000 0
+0.000000 +0.000000 0
+0.000000 +0.000000 0
+0.000000 +0.000000 0
+0.000000 +0.000000 0
+0.000000 +0.000000 0
+0.000000 +0.000000 0
+0.000000 +0.000000 0
+0.000000 +0.000000 0
+0.000000 +0.000000 0
+0.000000 +0.000000 0
+0.000000 +0.000000 0
+0.000000 +0.000000 0
+0.000000 +0.000000 0
+0.000000 +0.000000 0
+0.000000 +0.000000 0
+0.000000 +0.000000 0
+0.000000 +0.000000 0
+0.000000 +0.000000 0
+0.000000 +0.000000 0
+0.000000 +0.000000 0
+0.000000 +0.000000 0
+0.000000 +0.000000 0
+0.000000 +0.000000 0
+0.000000 +0.000000 0
+0.000000 +0.000000 0
+0.000000 +0.000000 0
+0.000000 +0.000000 0
+0.000000 +0.000000 0
+0.000000 +0.000000 0
+0.000000 +0.000000 0
+0.000000 +0.000000 0
+0.000000 +0.000000 0
+0.000000 +0.000000 0
+0.000000 +0.000000 0
+0.000000 +0.000000 0
+0.000000 +0.000000 0
+0.000000 +0.000000 0
+0.000000 +0.000000 0
-0.060045 -0.044626 0
-0.118453 -0.088035 0
-0.173629 -0.129042 0
-0.224069 -0.166529 0
-0.268397 -0.199474 0
-0.305404 -0.226978 0
-0.334081 -0.248290 0
-0.353644 -0.262830 0
-0.363561 -0.270201 0
-0.363561 -0.270201 0
-0.353644 -0.262830 0
-0.334081 -0.248290 0
-0.305404 -0.226978 0
-0.268397 -0.199474 0
-0.224069 -0.166529 0
-0.173629 -0.129042 0
-0.118453 -0.088035 0
-0.060045 -0.044626 0
-0.091995 -0.068371 0
-0.181480 -0.134877 0
-0.266015 -0.197704 0
-0.343294 -0.255138 0
-0.411209 -0.305612 0
-0.467907 -0.347751 0
-0.511841 -0.380403 0
-0.541815 -0.402679 0
-0.557008 -0.413971 0
-0.557008 -0.413971 0
-0.541815 -0.402679 0
-0.511841 -0.380403 0
-0.467907 -0.347751 0
-0.411209 -0.305612 0
-0.343294 -0.255138 0
-0.266015 -0.197704 0
-0.181480 -0.134877 0
-0.091995 -0.068371 0
-0.080899 -0.060124 0
-0.159591 -0.118609 0
-0.233930 -0.173858 0
-0.301888 -0.224364 0
-0.361611 -0.268751 0
-0.411470 -0.305807 0
-0.450106 -0.334521 0
-0.476464 -0.354110 0
-0.489825 -0.364040 0
-0.489825 -0.364040 0
-0.476464 -0.354110 0
-0.450106 -0.334521 0
-0.411470 -0.305807 0
-0.361611 -0.268751 0
-0.301888 -0.224364 0
-0.233930 -0.173858 0
-0.159591 -0.118609 0
-0.080899 -0.060124 0
-0.031949 -0.023745 0
-0.063027 -0.046842 0
-0.092386 -0.068662 0
-0.119225 -0.088608 0
-0.142811 -0.106138 0
-0.162502 -0.120773 0
-0.177761 -0.132113 0
-0.188170 -0.139849 0
-0.193447 -0.143771 0
-0.193447 -0.143771 0
-0.188170 -0.139849 0
-0.177761 -0.132113 0
-0.162502 -0.120773 0
-0.142811 -0.106138 0
-0.119225 -0.088608 0
-0.092386 -0.068662 0
-0.063027 -0.046842 0
-0.031949 -0.023745 0
+0.031949 +0.023745 0
+0.063027 +0.046842 0
+0.092386 +0.068662 0
+0.119225 +0.088608 0
+0.142811 +0.106138 0
+0.162502 +0.120773 0
+0.177761 +0.132113 0
+0.188170 +0.139849 0
+0.193447 +0.143771 0
+0.193447 +0.143771 0
+0.188170 +0.139849 0
+0.177761 +0.132113 0
+0.162502 +0.120773 0
+0.142811 +0.106138 0
+0.119225 +0.088608 0
+0.092386 +0.068662 0
+0.063027 +0.046842 0
+0.031949 +0.023745 0
+0.080899 +0.060124 0
+0.159591 +0.118609 0
+0.233930 +0.173858 0
+0.301888 +0.224364 0
+0.361611 +0.268751 0
+0.411470 +0.305807 0
+0.450106 +0.334521 0
+0.476464 +0.354110 0
+0.489825 +0.364040 0
+0.489825 +0.364040 0
+0.476464 +0.354110 0
+0.450106 +0.334521 0
+0.411470 +0.305807 0
+0.361611 +0.268751 0
+0.301888 +0.224364 0
+0.233930 +0.173858 0
+0.159591 +0.118609 0
+0.080899 +0.060124 0
+0.091995 +0.068371 0
+0.181480 +0.134877 0
+0.266015 +0.197704 0
+0.343294 +0.255138 0
+0.411209 +0.305612 0
+0.467907 +0.347751 0
+0.511841 +0.380403 0
+0.541815 +0.402679 0
+0.557008 +0.413971 0
+0.557008 +0.413971 0
+0.541815 +0.402679 0
+0.511841 +0.380403 0
+0.467907 +0.347751 0
+0.411209 +0.305612 0
+0.343294 +0.255138 0
+0.266015 +0.197704 0
+0.181480 +0.134877 0
+0.091995 +0.068371 0
+0.060045 +0.044626 0
+0.118453 +0.088035 0
+0.173629 +0.129042 0
+0.224069 +0.166529 0
+0.268397 +0.199474 0
+0.305404 +0.226978 0
+0.334081 +0.248290 0
+0.353644 +0.262830 0
+0.363561 +0.270201 0
+0.363561 +0.270201 0
+0.353644 +0.262830 0
+0.334081 +0.248290 0
+0.305404 +0.226978 0
+0.268397 +0.199474 0
+0.224069 +0.166529 0
+0.173629 +0.129042 0
+0.118453 +0.088035 0
+0.060045 +0.044626 0
-0.030126 -0.022389 0
-0.031949 -0.023745 0
-0.016029 -0.011913 0
-0.089555 -0.066558 0
-0.063027 -0.046842 0
-0.047651 -0.035415 0
-0.146541 -0.108910 0
-0.092386 -0.068662 0
-0.077973 -0.057950 0
-0.199531 -0.148292 0
-0.119225 -0.088608 0
-0.106168 -0.078905 0
-0.247077 -0.183629 0
-0.142811 -0.106138 0
-0.131467 -0.097707 0
-0.287884 -0.213957 0
-0.162502 -0.120773 0
-0.153180 -0.113844 0
-0.320838 -0.238449 0
-0.177761 -0.132113 0
-0.170715 -0.126876 0
-0.345041 -0.256436 0
-0.188170 -0.139849 0
-0.183593 -0.136447 0
-0.359832 -0.267429 0
-0.193447 -0.143771 0
-0.191463 -0.142296 0
-0.364807 -0.271127 0
-0.193447 -0.143771 0
-0.194110 -0.144263 0
-0.359832 -0.267429 0
-0.188170 -0.139849 0
-0.191463 -0.142296 0
-0.345041 -0.256436 0
-0.177761 -0.132113 0
-0.183593 -0.136447 0
-0.320838 -0.238449 0
-0.162502 -0.120773 0
-0.170715 -0.126876 0
-0.287884 -0.213957 0
-0.142811 -0.106138 0
-0.153180 -0.113844 0
-0.247077 -0.183629 0
-0.119225 -0.088608 0
-0.131467 -0.097707 0
-0.199531 -0.148292 0
-0.092386 -0.068662 0
-0.106168 -0.078905 0
-0.146541 -0.108910 0
-0.063027 -0.046842 0
-0.077973 -0.057950 0
-0.089555 -0.066558 0
-0.031949 -0.023745 0
-0.047651 -0.035415 0
-0.030126 -0.022389 0
-0.016029 -0.011913 0
-0.046155 -0.034303 0
-0.080899 -0.060124 0
-0.040588 -0.030165 0
-0.137206 -0.101972 0
-0.159591 -0.118609 0
-0.120657 -0.089673 0
-0.224514 -0.166860 0
-0.233930 -0.173858 0
-0.197435 -0.146734 0
-0.305699 -0.227197 0
-0.301888 -0.224364 0
-0.268827 -0.199794 0
-0.378544 -0.281336 0
-0.361611 -0.268751 0
-0.332886 -0.247403 0
-0.441064 -0.327801 0
-0.411470 -0.305807 0
-0.387865 -0.288263 0
-0.491553 -0.365325 0
-0.450106 -0.334521 0
-0.432264 -0.321261 0
-0.528634 -0.392883 0
-0.476464 -0.354110 0
-0.464873 -0.345496 0
-0.551294 -0.409725 0
-0.489825 -0.364040 0
-0.484800 -0.360306 0
-0.558917 -0.415390 0
-0.489825 -0.364040 0
-0.491504 -0.365288 0
-0.551294 -0.409725 0
-0.476464 -0.354110 0
-0.484800 -0.360306 0
-0.528634 -0.392883 0
-0.450106 -0.334521 0
-0.464873 -0.345496 0
-0.491553 -0.365325 0
-0.411470 -0.305807 0
-0.432264 -0.321261 0
-0.441064 -0.327801 0
-0.361611 -0.268751 0
-0.387865 -0.288263 0
-0.378544 -0.281336 0
-0.301888 -0.224364 0
-0.332886 -0.247403 0
-0.305699 -0.227197 0
-0.233930 -0.173858 0
-0.268827 -0.199794 0
-0.224514 -0.166860 0
-0.159591 -0.118609 0
-0.197435 -0.146734 0
-0.137206 -0.101972 0
-0.080899 -0.060124 0
-0.120657 -0.089673 0
-0.046155 -0.034303 0
-0.040588 -0.030165 0
-0.040588 -0.030165 0
-0.091995 -0.068371 0
-0.046155 -0.034303 0
-0.120657 -0.089673 0
-0.181480 -0.134877 0
-0.137206 -0.101972 0
-0.197435 -0.146734 0
-0.266015 -0.197704 0
-0.224514 -0.166860 0
-0.268827 -0.199794 0
-0.343294 -0.255138 0
-0.305699 -0.227197 0
-0.332886 -0.247403 0
-0.411209 -0.305612 0
-0.378544 -0.281336 0
-0.387865 -0.288263 0
-0.467907 -0.347751 0
-0.441064 -0.327801 0
-0.432264 -0.321261 0
-0.511841 -0.380403 0
-0.491553 -0.365325 0
-0.464873 -0.345496 0
-0.541815 -0.402679 0
-0.528634 -0.392883 0
-0.484800 -0.360306 0
-0.557008 -0.413971 0
-0.551294 -0.409725 0
-0.491504 -0.365288 0
-0.557008 -0.413971 0
-0.558917 -0.415390 0
-0.484800 -0.360306 0
-0.541815 -0.402679 0
-0.551294 -0.409725 0
-0.464873 -0.345496 0
-0.511841 -0.380403 0
-0.528634 -0.392883 0
-0.432264 -0.321261 0
-0.467907 -0.347751 0
-0.491553 -0.365325 0
-0.387865 -0.288263 0
-0.411209 -0.305612 0
-0.441064 -0.327801 0
-0.332886 -0.247403 0
-0.343294 -0.255138 0
-0.378544 -0.281336 0
-0.268827 -0.199794 0
-0.266015 -0.197704 0
-0.305699 -0.227197 0
-0.197435 -0.146734 0
-0.181480 -0.134877 0
-0.224514 -0.166860 0
-0.120657 -0.089673 0
-0.091995 -0.068371 0
-0.137206 -0.101972 0
-0.040588 -0.030165 0
-0.046155 -0.034303 0
-0.016029 -0.011913 0
-0.060045 -0.044626 0
-0.030126 -0.022389 0
-0.047651 -0.035415 0
-0.118453 -0.088035 0
-0.089555 -0.066558 0
-0.077973 -0.057950 0
-0.173629 -0.129042 0
-0.146541 -0.108910 0
-0.106168 -0.078905 0
-0.224069 -0.166529 0
-0.199531 -0.148292 0
-0.131467 -0.097707 0
-0.268397 -0.199474 0
-0.247077 -0.183629 0
-0.153180 -0.113844 0
-0.305404 -0.226978 0
-0.287884 -0.213957 0
-0.170715 -0.126876 0
-0.334081 -0.248290 0
-0.320838 -0.238449 0
-0.183593 -0.136447 0
-0.353644 -0.262830 0
-0.345041 -0.256436 0
-0.191463 -0.142296 0
-0.363561 -0.270201 0
-0.359832 -0.267429 0
-0.194110 -0.144263 0
-0.363561 -0.270201 0
-0.364807 -0.271127 0
-0.191463 -0.142296 0
-0.353644 -0.262830 0
-0.359832 -0.267429 0
-0.183593 -0.136447 0
-0.334081 -0.248290 0
-0.345041 -0.256436 0
-0.170715 -0.126876 0
-0.305404 -0.226978 0
-0.320838 -0.238449 0
-0.153180 -0.113844 0
-0.268397 -0.199474 0
-0.287884 -0.213957 0
-0.131467 -0.097707 0
-0.224069 -0.166529 0
-0.247077 -0.183629 0
-0.106168 -0.078905 0
-0.173629 -0.129042 0
-0.199531 -0.148292 0
-0.077973 -0.057950 0
-0.118453 -0.088035 0
-0.146541 -0.108910 0
-0.047651 -0.035415 0
-0.060045 -0.044626 0
-0.089555 -0.066558 0
-0.016029 -0.011913 0
-0.030126 -0.022389 0
+0.016029 +0.011913 0
-0.000000 -0.000000 0
-0.000000 -0.000000 0
+0.047651 +0.035415 0
-0.000000 -0.000000 0
-0.000000 -0.000000 0
+0.077973 +0.057950 0
-0.000000 -0.000000 0
-0.000000 -0.000000 0
+0.106168 +0.078905 0
-0.000000 -0.000000 0
-0.000000 -0.000000 0
+0.131467 +0.097707 0
-0.000000 -0.000000 0
-0.000000 -0.000000 0
+0.153180 +0.113844 0
-0.000000 -0.000000 0
-0.000000 -0.000000 0
+0.170715 +0.126876 0
-0.000000 -0.000000 0
-0.000000 -0.000000 0
+0.183593 +0.136447 0
-0.000000 -0.000000 0
-0.000000 -0.000000 0
+0.191463 +0.142296 0
-0.000000 -0.000000 0
-0.000000 -0.000000 0
+0.194110 +0.144263 0
+0.000000 -0.000000 0
+0.000000 -0.000000 0
+0.191463 +0.142296 0
+0.000000 +0.000000 0
+0.000000 +0.000000 0
+0.183593 +0.136447 0
+0.000000 +0.000000 0
+0.000000 +0.000000 0
+0.170715 +0.126876 0
+0.000000 +0.000000 0
+0.000000 +0.000000 0
+0.153180 +0.113844 0
+0.000000 +0.000000 0
+0.000000 +0.000000 0
+0.131467 +0.097707 0
+0.000000 +0.000000 0
+0.000000 +0.000000 0
+0.106168 +0.078905 0
+0.000000 +0.000000 0
+0.000000 +0.000000 0
+0.077973 +0.057950 0
+0.000000 +0.000000 0
+0.000000 +0.000000 0
+0.047651 +0.035415 0
+0.000000 +0.000000 0
+0.000000 +0.000000 0
+0.016029 +0.011913 0
+0.000000 +0.000000 0
+0.040588 +0.030165 0
+0.060045 +0.044626 0
+0.030126 +0.022389 0
+0.120657 +0.089673 0
+0.118453 +0.088035 0
+0.089555 +0.066558 0
+0.197435 +0.146734 0
+0.173629 +0.129042 0
+0.146541 +0.108910 0
+0.268827 +0.199794 0
+0.224069 +0.166529 0
+0.199531 +0.148292 0
+0.332886 +0.247403 0
+0.268397 +0.199474 0
+0.247077 +0.183629 0
+0.387865 +0.288263 0
+0.305404 +0.226978 0
+0.287884 +0.213957 0
+0.432264 +0.321261 0
+0.334081 +0.248290 0
+0.320838 +0.238449 0
+0.464873 +0.345496 0
+0.353644 +0.262830 0
+0.345041 +0.256436 0
+0.484800 +0.360306 0
+0.363561 +0.270201 0
+0.359832 +0.267429 0
+0.491504 +0.365288 0
+0.363561 +0.270201 0
+0.364807 +0.271127 0
+0.484800 +0.360306 0
+0.353644 +0.262830 0
+0.359832 +0.267429 0
+0.464873 +0.345496 0
+0.334081 +0.248290 0
+0.345041 +0.256436 0
+0.432264 +0.321261 0
+0.305404 +0.226978 0
+0.320838 +0.238449 0
+0.387865 +0.288263 0
+0.268397 +0.199474 0
+0.287884 +0.213957 0
+0.332886 +0.247403 0
+0.224069 +0.166529 0
+0.247077 +0.183629 0
+0.268827 +0.199794 0
+0.173629 +0.129042 0
+0.199531 +0.148292 0
+0.197435 +0.146734 0
+0.118453 +0.088035 0
+0.146541 +0.108910 0
+0.120657 +0.089673 0
+0.060045 +0.044626 0
+0.089555 +0.066558 0
+0.040588 +0.030165 0
+0.030126 +0.022389 0
+0.046155 +0.034303 0
+0.091995 +0.068371 0
+0.046155 +0.034303 0
+0.137206 +0.101972 0
+0.181480 +0.134877 0
+0.137206 +0.101972 0
+0.224514 +0.166860 0
+0.266015 +0.197704 0
+0.224514 +0.166860 0
+0.305699 +0.227197 0
+0.343294 +0.255138 0
+0.305699 +0.227197 0
+0.378544 +0.281336 0
+0.411209 +0.305612 0
+0.378544 +0.281336 0
+0.441064 +0.327801 0
+0.467907 +0.347751 0
+0.441064 +0.327801 0
+0.491553 +0.365325 0
+0.511841 +0.380403 0
+0.491553 +0.365325 0
+0.528634 +0.392883 0
+0.541815 +0.402679 0
+0.528634 +0.392883 0
+0.551294 +0.409725 0
+0.557008 +0.413971 0
+0.551294 +0.409725 0
+0.558917 +0.415390 0
+0.557008 +0.413971 0
+0.558917 +0.415390 0
+0.551294 +0.409725 0
+0.541815 +0.402679 0
+0.551294 +0.409725 0
+0.528634 +0.392883 0
+0.511841 +0.380403 0
+0.528634 +0.392883 0
+0.491553 +0.365325 0
+0.467907 +0.347751 0
+0.491553 +0.365325 0
+0.441064 +0.327801 0
+0.411209 +0.305612 0
+0.441064 +0.327801 0
+0.378544 +0.281336 0
+0.343294 +0.255138 0
+0.378544 +0.281336 0
+0.305699 +0.227197 0
+0.266015 +0.197704 0
+0.305699 +0.227197 0
+0.224514 +0.166860 0
+0.181480 +0.134877 0
+0.224514 +0.166860 0
+0.137206 +0.101972 0
+0.091995 +0.068371 0
+0.137206 +0.101972 0
+0.046155 +0.034303 0
+0.046155 +0.034303 0
+0.030126 +0.022389 0
+0.080899 +0.060124 0
+0.040588 +0.030165 0
+0.089555 +0.066558 0
+0.159591 +0.118609 0
+0.120657 +0.089673 0
+0.146541 +0.108910 0
+0.233930 +0.173858 0
+0.197435 +0.146734 0
+0.199531 +0.148292 0
+0.301888 +0.224364 0
+0.268827 +0.199794 0
+0.247077 +0.183629 0
+0.361611 +0.268751 0
+0.332886 +0.247403 0
+0.287884 +0.213957 0
+0.411470 +0.305807 0
+0.387865 +0.288263 0
+0.320838 +0.238449 0
+0.450106 +0.334521 0
+0.432264 +0.321261 0
+0.345041 +0.256436 0
+0.476464 +0.354110 0
+0.464873 +0.345496 0
+0.359832 +0.267429 0
+0.489825 +0.364040 0
+0.484800 +0.360306 0
+0.364807 +0.271127 0
+0.489825 +0.364040 0
+0.491504 +0.365288 0
+0.359832 +0.267429 0
+0.476464 +0.354110 0
+0.484800 +0.360306 0
+0.345041 +0.256436 0
+0.450106 +0.334521 0
+0.464873 +0.345496 0
+0.320838 +0.238449 0
+0.411470 +0.305807 0
+0.432264 +0.321261 0
+0.287884 +0.213957 0
+0.361611 +0.268751 0
+0.387865 +0.288263 0
+0.247077 +0.183629 0
+0.301888 +0.224364 0
+0.332886 +0.247403 0
+0.199531 +0.148292 0
+0.233930 +0.173858 0
+0.268827 +0.199794 0
+0.146541 +0.108910 0
+0.159591 +0.118609 0
+0.197435 +0.146734 0
+0.089555 +0.066558 0
+0.080899 +0.060124 0
+0.120657 +0.089673 0
+0.030126 +0.022389 0
+0.040588 +0.030165 0
+0.031949 +0.023745 0
+0.016029 +0.011913 0
+0.063027 +0.046842 0
+0.047651 +0.035415 0
+0.092386 +0.068662 0
+0.077973 +0.057950 0
+0.119225 +0.088608 0
+0.106168 +0.078905 0
+0.142811 +0.106138 0
+0.131467 +0.097707 0
+0.162502 +0.120773 0
+0.153180 +0.113844 0
+0.177761 +0.132113 0
+0.170715 +0.126876 0
+0.188170 +0.139849 0
+0.183593 +0.136447 0
+0.193447 +0.143771 0
+0.191463 +0.142296 0
+0.193447 +0.143771 0
+0.194110 +0.144263 0
+0.188170 +0.139849 0
+0.191463 +0.142296 0
+0.177761 +0.132113 0
+0.183593 +0.136447 0
+0.162502 +0.120773 0
+0.170715 +0.126876 0
+0.142811 +0.106138 0
+0.153180 +0.113844 0
+0.119225 +0.088608 0
+0.131467 +0.097707 0
+0.092386 +0.068662 0
+0.106168 +0.078905 0
+0.063027 +0.046842 0
+0.077973 +0.057950 0
+0.031949 +0.023745 0
+0.047651 +0.035415 0
+0.016029 +0.011913 0
-0.008022 -0.005962 0
-0.008138 -0.006048 0
-0.015076 -0.011204 0
-0.023434 -0.017416 0
-0.045124 -0.033537 0
-0.046707 -0.034713 0
-0.024010 -0.017844 0
-0.016221 -0.012056 0
-0.039835 -0.029605 0
-0.024193 -0.017980 0
-0.074865 -0.055640 0
-0.069661 -0.051773 0
-0.104094 -0.077363 0
-0.092140 -0.068479 0
-0.055387 -0.041164 0
-0.032000 -0.023782 0
-0.070561 -0.052441 0
-0.039588 -0.029422 0
-0.132612 -0.098558 0
-0.113989 -0.084717 0
-0.160224 -0.119079 0
-0.135060 -0.100377 0
-0.085253 -0.063361 0
-0.046906 -0.034861 0
-0.099363 -0.073847 0
-0.053903 -0.040061 0
-0.186741 -0.138787 0
-0.155208 -0.115351 0
-0.211983 -0.157547 0
-0.174295 -0.129537 0
-0.112794 -0.083829 0
-0.060532 -0.044988 0
-0.125454 -0.093238 0
-0.066748 -0.049607 0
-0.235777 -0.175230 0
-0.192192 -0.142838 0
-0.257960 -0.191717 0
-0.208776 -0.155164 0
-0.137258 -0.102011 0
-0.072507 -0.053888 0
-0.148123 -0.110086 0
-0.077772 -0.057800 0
-0.278381 -0.206894 0
-0.223934 -0.166429 0
-0.296901 -0.220658 0
-0.237563 -0.176558 0
-0.157977 -0.117410 0
-0.082505 -0.061318 0
-0.166752 -0.123931 0
-0.086674 -0.064417 0
-0.313392 -0.232914 0
-0.249568 -0.185480 0
-0.327742 -0.243580 0
-0.259869 -0.193136 0