# vtk DataFile Version 2.0
MyTitle
ASCII
DATASET UNSTRUCTURED_GRID
POINTS 1045 double
1.000000 -1.000000 0.000000
1.000000 1.000000 0.000000
-1.000000 1.000000 0.000000
-1.000000 -1.000000 0.000000
1.000000 -0.888889 0.000000
1.000000 -0.777778 0.000000
1.000000 -0.666667 0.000000
1.000000 -0.555556 0.000000
1.000000 -0.444444 0.000000
1.000000 -0.333333 0.000000
1.000000 -0.222222 0.000000
1.000000 -0.111111 0.000000
1.000000 -0.000000 0.000000
1.000000 0.111111 0.000000
1.000000 0.222222 0.000000
1.000000 0.333333 0.000000
1.000000 0.444444 0.000000
1.000000 0.555556 0.000000
1.000000 0.666667 0.000000
1.000000 0.777778 0.000000
1.000000 0.888889 0.000000
1.000000 -0.944444 0.000000
1.000000 -0.833333 0.000000
1.000000 -0.722222 0.000000
1.000000 -0.611111 0.000000
1.000000 -0.500000 0.000000
1.000000 -0.388889 0.000000
1.000000 -0.277778 0.000000
1.000000 -0.166667 0.000000
1.000000 -0.055556 0.000000
1.000000 0.055556 0.000000
1.000000 0.166667 0.000000
1.000000 0.277778 0.000000
1.000000 0.388889 0.000000
1.000000 0.500000 0.000000
1.000000 0.611111 0.000000
1.000000 0.722222 0.000000
1.000000 0.833333 0.000000
1.000000 0.944444 0.000000
0.888889 1.000000 0.000000
0.777778 1.000000 0.000000
0.666667 1.000000 0.000000
0.555556 1.000000 0.000000
0.444444 1.000000 0.000000
0.333333 1.000000 0.000000
0.222222 1.000000 0.000000
0.111111 1.000000 0.000000
0.000000 1.000000 0.000000
-0.111111 1.000000 0.000000
-0.222222 1.000000 0.000000
-0.333333 1.000000 0.000000
-0.444444 1.000000 0.000000
-0.555556 1.000000 0.000000
-0.666667 1.000000 0.000000
-0.777778 1.000000 0.000000
-0.888889 1.000000 0.000000
0.944444 1.000000 0.000000
0.833333 1.000000 0.000000
0.722222 1.000000 0.000000
0.611111 1.000000 0.000000
0.500000 1.000000 0.000000
0.388889 1.000000 0.000000
0.277778 1.000000 0.000000
0.166667 1.000000 0.000000
0.055556 1.000000 0.000000
-0.055556 1.000000 0.000000
-0.166667 1.000000 0.000000
-0.277778 1.000000 0.000000
-0.388889 1.000000 0.000000
-0.500000 1.000000 0.000000
-0.611111 1.000000 0.000000
-0.722222 1.000000 0.000000
-0.833333 1.000000 0.000000
-0.944444 1.000000 0.000000
-1.000000 0.888889 0.000000
-1.000000 0.777778 0.000000
-1.000000 0.666667 0.000000
-1.000000 0.555556 0.000000
-1.000000 0.444444 0.000000
-1.000000 0.333333 0.000000
-1.000000 0.222222 0.000000
-1.000000 0.111111 0.000000
-1.000000 0.000000 0.000000
-1.000000 -0.111111 0.000000
-1.000000 -0.222222 0.000000
-1.000000 -0.333333 0.000000
-1.000000 -0.444444 0.000000
-1.000000 -0.555556 0.000000
-1.000000 -0.666667 0.000000
-1.000000 -0.777778 0.000000
-1.000000 -0.888889 0.000000
-1.000000 0.944444 0.000000
-1.000000 0.833333 0.000000
-1.000000 0.722222 0.000000
-1.000000 0.611111 0.000000
-1.000000 0.500000 0.000000
-1.000000 0.388889 0.000000
-1.000000 0.277778 0.000000
-1.000000 0.166667 0.000000
-1.000000 0.055556 0.000000
-1.000000 -0.055556 0.000000
-1.000000 -0.166667 0.000000
-1.000000 -0.277778 0.000000
-1.000000 -0.388889 0.000000
-1.000000 -0.500000 0.000000
-1.000000 -0.611111 0.000000
-1.000000 -0.722222 0.000000
-1.000000 -0.833333 0.000000
-1.000000 -0.944444 0.000000
-0.888889 -1.000000 0.000000
-0.777778 -1.000000 0.000000
-0.666667 -1.000000 0.000000
-0.555556 -1.000000 0.000000
-0.444444 -1.000000 0.000000
-0.333333 -1.000000 0.000000
-0.222222 -1.000000 0.000000
-0.111111 -1.000000 0.000000
-0.000000 -1.000000 0.000000
0.111111 -1.000000 0.000000
0.222222 -1.000000 0.000000
0.333333 -1.000000 0.000000
0.444444 -1.000000 0.000000
0.555556 -1.000000 0.000000
0.666667 -1.000000 0.000000
0.777778 -1.000000 0.000000
0.888889 -1.000000 0.000000
-0.944444 -1.000000 0.000000
-0.833333 -1.000000 0.000000
-0.722222 -1.000000 0.000000
-0.611111 -1.000000 0.000000
-0.500000 -1.000000 0.000000
-0.388889 -1.000000 0.000000
-0.277778 -1.000000 0.000000
-0.166667 -1.000000 0.000000
-0.055556 -1.000000 0.000000
0.055556 -1.000000 0.000000
0.166667 -1.000000 0.000000
0.277778 -1.000000 0.000000
0.388889 -1.000000 0.000000
0.500000 -1.000000 0.000000
0.611111 -1.000000 0.000000
0.722222 -1.000000 0.000000
0.833333 -1.000000 0.000000
0.944444 -1.000000 0.000000
-0.777778 0.777778 0.000000
-0.555556 0.777778 0.000000
-0.333333 0.777778 0.000000
-0.111111 0.777778 0.000000
0.111111 0.777778 0.000000
0.333333 0.777778 0.000000
0.555556 0.777778 0.000000
0.777778 0.777778 0.000000
-0.777778 0.555556 0.000000
-0.555556 0.555556 0.000000
-0.333333 0.555556 0.000000
-0.111111 0.555556 0.000000
0.111111 0.555556 0.000000
0.333333 0.555556 0.000000
0.555556 0.555556 0.000000
0.777778 0.555556 0.000000
-0.777778 0.333333 0.000000
-0.555556 0.333333 0.000000
-0.333333 0.333333 0.000000
-0.111111 0.333333 0.000000
0.111111 0.333333 0.000000
0.333333 0.333333 0.000000
0.555556 0.333333 0.000000
0.777778 0.333333 0.000000
-0.777778 0.111111 0.000000
-0.555556 0.111111 0.000000
-0.333333 0.111111 0.000000
-0.111111 0.111111 0.000000
0.111111 0.111111 0.000000
0.333333 0.111111 0.000000
0.555556 0.111111 0.000000
0.777778 0.111111 0.000000
-0.777778 -0.111111 0.000000
-0.555556 -0.111111 0.000000
-0.333333 -0.111111 0.000000
-0.111111 -0.111111 0.000000
0.111111 -0.111111 0.000000
0.333333 -0.111111 0.000000
0.555556 -0.111111 0.000000
0.777778 -0.111111 0.000000
-0.777778 -0.333333 0.000000
-0.555556 -0.333333 0.000000
-0.333333 -0.333333 0.000000
-0.111111 -0.333333 0.000000
0.111111 -0.333333 0.000000
0.333333 -0.333333 0.000000
0.555556 -0.333333 0.000000
0.777778 -0.333333 0.000000
-0.777778 -0.555556 0.000000
-0.555556 -0.555556 0.000000
-0.333333 -0.555556 0.000000
-0.111111 -0.555556 0.000000
0.111111 -0.555556 0.000000
0.333333 -0.555556 0.000000
0.555556 -0.555556 0.000000
0.777778 -0.555556 0.000000
-0.777778 -0.777778 0.000000
-0.555556 -0.777778 0.000000
-0.333333 -0.777778 0.000000
-0.111111 -0.777778 0.000000
0.111111 -0.777778 0.000000
0.333333 -0.777778 0.000000
0.555556 -0.777778 0.000000
0.777778 -0.777778 0.000000
-0.888889 0.777778 0.000000
-0.777778 0.888889 0.000000
-0.888889 0.888889 0.000000
-0.666667 0.777778 0.000000
-0.555556 0.888889 0.000000
-0.666667 0.888889 0.000000
-0.444444 0.777778 0.000000
-0.333333 0.888889 0.000000
-0.444444 0.888889 0.000000
-0.222222 0.777778 0.000000
-0.111111 0.888889 0.000000
-0.222222 0.888889 0.000000
0.000000 0.777778 0.000000
0.111111 0.888889 0.000000
0.000000 0.888889 0.000000
0.222222 0.777778 0.000000
0.333333 0.888889 0.000000
0.222222 0.888889 0.000000
0.444444 0.777778 0.000000
0.555556 0.888889 0.000000
0.444444 0.888889 0.000000
0.666667 0.777778 0.000000
0.777778 0.888889 0.000000
0.666667 0.888889 0.000000
0.888889 0.777778 0.000000
0.888889 0.888889 0.000000
-0.888889 0.555556 0.000000
-0.777778 0.666667 0.000000
-0.888889 0.666667 0.000000
-0.666667 0.555556 0.000000
-0.555556 0.666667 0.000000
-0.666667 0.666667 0.000000
-0.444444 0.555556 0.000000
-0.333333 0.666667 0.000000
-0.444444 0.666667 0.000000
-0.222222 0.555556 0.000000
-0.111111 0.666667 0.000000
-0.222222 0.666667 0.000000
0.000000 0.555556 0.000000
0.111111 0.666667 0.000000
0.000000 0.666667 0.000000
0.222222 0.555556 0.000000
0.333333 0.666667 0.000000
0.222222 0.666667 0.000000
0.444444 0.555556 0.000000
0.555556 0.666667 0.000000
0.444444 0.666667 0.000000
0.666667 0.555556 0.000000
0.777778 0.666667 0.000000
0.666667 0.666667 0.000000
0.888889 0.555556 0.000000
0.888889 0.666667 0.000000
-0.888889 0.333333 0.000000
-0.777778 0.444444 0.000000
-0.888889 0.444444 0.000000
-0.666667 0.333333 0.000000
-0.555556 0.444444 0.000000
-0.666667 0.444444 0.000000
-0.444444 0.333333 0.000000
-0.333333 0.444444 0.000000
-0.444444 0.444444 0.000000
-0.222222 0.333333 0.000000
-0.111111 0.444444 0.000000
-0.222222 0.444444 0.000000
0.000000 0.333333 0.000000
0.111111 0.444444 0.000000
0.000000 0.444444 0.000000
0.222222 0.333333 0.000000
0.333333 0.444444 0.000000
0.222222 0.444444 0.000000
0.444444 0.333333 0.000000
0.555556 0.444444 0.000000
0.444444 0.444444 0.000000
0.666667 0.333333 0.000000
0.777778 0.444444 0.000000
0.666667 0.444444 0.000000
0.888889 0.333333 0.000000
0.888889 0.444444 0.000000
-0.888889 0.111111 0.000000
-0.777778 0.222222 0.000000
-0.888889 0.222222 0.000000
-0.666667 0.111111 0.000000
-0.555556 0.222222 0.000000
-0.666667 0.222222 0.000000
-0.444444 0.111111 0.000000
-0.333333 0.222222 0.000000
-0.444444 0.222222 0.000000
-0.222222 0.111111 0.000000
-0.111111 0.222222 0.000000
-0.222222 0.222222 0.000000
0.000000 0.111111 0.000000
0.111111 0.222222 0.000000
0.000000 0.222222 0.000000
0.222222 0.111111 0.000000
0.333333 0.222222 0.000000
0.222222 0.222222 0.000000
0.444444 0.111111 0.000000
0.555556 0.222222 0.000000
0.444444 0.222222 0.000000
0.666667 0.111111 0.000000
0.777778 0.222222 0.000000
0.666667 0.222222 0.000000
0.888889 0.111111 0.000000
0.888889 0.222222 0.000000
-0.888889 -0.111111 0.000000
-0.777778 0.000000 0.000000
-0.888889 0.000000 0.000000
-0.666667 -0.111111 0.000000
-0.555556 0.000000 0.000000
-0.666667 0.000000 0.000000
-0.444444 -0.111111 0.000000
-0.333333 0.000000 0.000000
-0.444444 0.000000 0.000000
-0.222222 -0.111111 0.000000
-0.111111 0.000000 0.000000
-0.222222 0.000000 0.000000
-0.000000 -0.111111 0.000000
0.111111 -0.000000 0.000000
-0.000000 -0.000000 0.000000
0.222222 -0.111111 0.000000
0.333333 -0.000000 0.000000
0.222222 -0.000000 0.000000
0.444444 -0.111111 0.000000
0.555556 -0.000000 0.000000
0.444444 -0.000000 0.000000
0.666667 -0.111111 0.000000
0.777778 -0.000000 0.000000
0.666667 -0.000000 0.000000
0.888889 -0.111111 0.000000
0.888889 -0.000000 0.000000
-0.888889 -0.333333 0.000000
-0.777778 -0.222222 0.000000
-0.888889 -0.222222 0.000000
-0.666667 -0.333333 0.000000
-0.555556 -0.222222 0.000000
-0.666667 -0.222222 0.000000
-0.444444 -0.333333 0.000000
-0.333333 -0.222222 0.000000
-0.444444 -0.222222 0.000000
-0.222222 -0.333333 0.000000
-0.111111 -0.222222 0.000000
-0.222222 -0.222222 0.000000
-0.000000 -0.333333 0.000000
0.111111 -0.222222 0.000000
-0.000000 -0.222222 0.000000
0.222222 -0.333333 0.000000
0.333333 -0.222222 0.000000
[...]
POINT_DATA 1045
VECTORS sol double
+0.000000 +0.000000 0
+0.000000 +0.000000 0
+0.000000 +0.000000 0
+0.000000 +0.000000 0
+0.000000 +0.000000 0
+0.000000 +0.000000 0
+0.000000 +0.000000 0
+0.000000 +0.000000 0
+0.000000 +0.000000 0
+0.000000 +0.000000 0
+0.000000 +0.000000 0
+0.000000 +0.000000 0
+0.000000 +0.000000 0
+0.000000 +0.000000 0
+0.000000 +0.000000 0
+0.000000 +0.000000 0
+0.000000 +0.000000 0
+0.000000 +0.000000 0
+0.000000 +0.000000 0
+0.000000 +0.000000 0
+0.000000 +0.000000 0
+0.000000 +0.000000 0
+0.000000 +0.000000 0
+0.000000 +0.000000 0
+0.000000 +0.000000 0
+0.000000 +0.000000 0
+0.000000 +0.000000 0
+0.000000 +0.000000 0
+0.000000 +0.000000 0
+0.000000 +0.000000 0
+0.000000 +0.000000 0
+0.000000 +0.000000 0
+0.000000 +0.000000 0
+0.000000 +0.000000 0
+0.000000 +0.000000 0
+0.000000 +0.000000 0
+0.000000 +0.000000 0
+0.000000 +0.000000 0
+0.000000 +0.000000 0
+0.000000 +0.000000 0
+0.000000 +0.000000 0
+0.000000 +0.000000 0
+0.000000 +0.000000 0
+0.000000 +0.000000 0
+0.000000 +0.000000 0
+0.000000 +0.000000 0
+0.000000 +0.000000 0
+0.000000 +0.000000 0
+0.000000 +0.000000 0
+0.000000 +0.000000 0
+0.000000 +0.000000 0
+0.000000 +0.000000 0
+0.000000 +0.000000 0
+0.000000 +0.000000 0
+0.000000 +0.000000 0
+0.000000 +0.000000 0
+0.000000 +0.000000 0
+0.000000 +0.000000 0
+0.000000 +0.000000 0
+0.000000 +0.000000 0
+0.000000 +0.000000 0
+0.000000 +0.000000 0
+0.000000 +0.000000 0
+0.000000 +0.000000 0
+0.000000 +0.000000 0
+0.000000 +0.000000 0
+0.000000 +0.000000 0
+0.000000 +0.000000 0
+0.000000 +0.000000 0
+0.000000 +0.000000 0
+0.000000 +0.000000 0
+0.000000 +0.000000 0
+0.000000 +0.000000 0
+0.000000 +0.000000 0
+0.000000 +0.000000 0
+0.000000 +0.000000 0
+0.000000 +0.000000 0
+0.000000 +0.000000 0
+0.000000 +0.000000 0
+0.000000 +0.000000 0
+0.000000 +0.000000 0
+0.000000 +0.000000 0
+0.000000 +0.000000 0
+0.000000 +0.000000 0
+0.000000 +0.000000 0
+0.000000 +0.000000 0
+0.000000 +0.000000 0
+0.000000 +0.000000 0
+0.000000 +0.000000 0
+0.000000 +0.000000 0
+0.000000 +0.000000 0
+0.000000 +0.000000 0
+0.000000 +0.000000 0
+0.000000 +0.000000 0
+0.000000 +0.000000 0
+0.000000 +0.000000 0
+0.000000 +0.000000 0
+0.000000 +0.000000 0
+0.000000 +0.000000 0
+0.000000 +0.000000 0
+0.000000 +0.000000 0
+0.000000 +0.000000 0
+0.000000 +0.000000 0
+0.000000 +0.000000 0
+0.000000 +0.000000 0
+0.000000 +0.000000 0
+0.000000 +0.000000 0
+0.000000 +0.000000 0
+0.000000 +0.000000 0
+0.000000 +0.000000 0
+0.000000 +0.000000 0
+0.000000 +0.000000 0
+0.000000 +0.000000 0
+0.000000 +0.000000 0
+0.000000 +0.000000 0
+0.000000 +0.000000 0
+0.000000 +0.000000 0
+0.000000 +0.000000 0
+0.000000 +0.000000 0
+0.000000 +0.000000 0
+0.000000 +0.000000 0
+0.000000 +0.000000 0
+0.000000 +0.000000 0
+0.000000 +0.000000 0
+0.000000 +0.000000 0
+0.000000 +0.000000 0
+0.000000 +0.000000 0
+0.000000 +0.000000 0
+0.000000 +0.000000 0
+0.000000 +0.000000 0
+0.000000 +0.000000 0
+0.000000 +0.000000 0
+0.000000 +0.000000 0
+0.000000 +0.000000 0
+0.000000 +0.000000 0
+0.000000 +0.000000 0
+0.000000 +0.000000 0
+0.000000 +0.000000 0
+0.000000 +0.000000 0
+0.000000 +0.000000 0
+0.000000 +0.000000 0
+0.000000 +0.000000 0
+0.000000 +0.000000 0
+0.000000 +0.000000 0
-0.147808 -0.028887 0
-0.230319 -0.007375 0
-0.212325 +0.086905 0
-0.104768 +0.233912 0
+0.040683 +0.377668 0
+0.155970 +0.450910 0
+0.188491 +0.406556 0
+0.125551 +0.241287 0
-0.273923 -0.091173 0
-0.425595 -0.083178 0
-0.389255 +0.069937 0
-0.185771 +0.333410 0
+0.087588 +0.603585 0
+0.302914 +0.754042 0
+0.361510 +0.694758 0
+0.239824 +0.416588 0
-0.361077 -0.198970 0
-0.558409 -0.255148 0
-0.504242 -0.098548 0
-0.227318 +0.229987 0
+0.140977 +0.593992 0
+0.428315 +0.823144 0
+0.502054 +0.792962 0
+0.331091 +0.485135 0
-0.399474 -0.332460 0
-0.614086 -0.489734 0
-0.545225 -0.380972 0
-0.226454 -0.044258 0
+0.192356 +0.369673 0
+0.515239 +0.667137 0
+0.591829 +0.702133 0
+0.387631 +0.445476 0
-0.387631 -0.445476 0
-0.591829 -0.702133 0
-0.515239 -0.667137 0
-0.192356 -0.369673 0
+0.226454 +0.044258 0
+0.545225 +0.380972 0
+0.614086 +0.489734 0
+0.399474 +0.332460 0
-0.331091 -0.485135 0
-0.502054 -0.792962 0
-0.428315 -0.823144 0
-0.140977 -0.593992 0
+0.227318 -0.229987 0
+0.504242 +0.098548 0
+0.558409 +0.255148 0
+0.361077 +0.198970 0
-0.239824 -0.416588 0
-0.361510 -0.694758 0
-0.302914 -0.754042 0
-0.087588 -0.603585 0
+0.185771 -0.333410 0
+0.389255 -0.069937 0
+0.425595 +0.083178 0
+0.273923 +0.091173 0
-0.125551 -0.241287 0
-0.188491 -0.406556 0
-0.155970 -0.450910 0
-0.040683 -0.377668 0
+0.104768 -0.233912 0
+0.212325 -0.086905 0
+0.230319 +0.007375 0
+0.147808 +0.028887 0
-0.078375 -0.017959 0
-0.075315 -0.012078 0
-0.039930 -0.007804 0
-0.200416 -0.026749 0
-0.117446 +0.001121 0
-0.102150 -0.009796 0
-0.234329 +0.030897 0
-0.108487 +0.050678 0
-0.119580 +0.021485 0
-0.167254 +0.156694 0
-0.053973 +0.126214 0
-0.085662 +0.086668 0
-0.032537 +0.310507 0
+0.019874 +0.199201 0
-0.017312 +0.165217 0
+0.106105 +0.426868 0
+0.078501 +0.235488 0
+0.053126 +0.223839 0
+0.184480 +0.444828 0
+0.095190 +0.211279 0
+0.093056 +0.231643 0
+0.167879 +0.337256 0
+0.063473 +0.125093 0
+0.084838 +0.175014 0
+0.067076 +0.125797 0
+0.033917 +0.065183 0
-0.145336 -0.052478 0
-0.214805 -0.054402 0
-0.113930 -0.032434 0
-0.371009 -0.104190 0
-0.334307 -0.033656 0
-0.291124 -0.056897 0
-0.431739 -0.024542 0
-0.307169 +0.096228 0
-0.339710 +0.017908 0
-0.303716 +0.193154 0
-0.149488 +0.306911 0
-0.241005 +0.195632 0
-0.049849 +0.475725 0
+0.063147 +0.517069 0
-0.043836 +0.418345 0
+0.210031 +0.700916 0
+0.231242 +0.628367 0
+0.158619 +0.590600 0
+0.355366 +0.753394 0
+0.277952 +0.571470 0
+0.272549 +0.623034 0
+0.321160 +0.579915 0
+0.184819 +0.340567 0
+0.247288 +0.475242 0
+0.128023 +0.217696 0
+0.098706 +0.177724 0
-0.191760 -0.109357 0
-0.323179 -0.139856 0
-0.171544 -0.078382 0
-0.488196 -0.251673 0
-0.501060 -0.157764 0
-0.437372 -0.169780 0
-0.563813 -0.203584 0
-0.455618 +0.004347 0
-0.507204 -0.099127 0
-0.387277 +0.051063 0
-0.211980 +0.307507 0
-0.352972 +0.144472 0
-0.043836 +0.418345 0
+0.113797 +0.629488 0
-0.049849 +0.475725 0
+0.304892 +0.735169 0
+0.369277 +0.819632 0
+0.259287 +0.749598 0
+0.496651 +0.844526 0
+0.436975 +0.769344 0
+0.430831 +0.827980 0
+0.444360 +0.670019 0
+0.289080 +0.465271 0
+0.387523 +0.645505 0
+0.176536 +0.254647 0
+0.154232 +0.243599 0
-0.212411 -0.178276 0
-0.386652 -0.264949 0
-0.205462 -0.143565 0
-0.538888 -0.441446 0
-0.596249 -0.369043 0
-0.522210 -0.344794 0
-0.616220 -0.469369 0
-0.534119 -0.231140 0
-0.600260 -0.330771 0
-0.409821 -0.233714 0
-0.231854 +0.108306 0
-0.406098 -0.079367 0
-0.017312 +0.165217 0
+0.167770 +0.503274 0
-0.032537 +0.310507 0
+0.377284 +0.544221 0
+0.477764 +0.768955 0
+0.344949 +0.662930 0
+0.589696 +0.722497 0
+0.554421 +0.768223 0
+0.550411 +0.806495 0
+0.521576 +0.606664 0
+0.364395 +0.477349 0
+0.489673 +0.655301 0
+0.206399 +0.235655 0
+0.194162 +0.251403 0
-0.206399 -0.235655 0
-0.399624 -0.394968 0
-0.212635 -0.210158 0
-0.521576 -0.606664 0
-0.612259 -0.605126 0
-0.538412 -0.532139 0
-0.589696 -0.722497 0
-0.538412 -0.532139 0
-0.612259 -0.605126 0
-0.377284 -0.544221 0
-0.212635 -0.210158 0
-0.399624 -0.394968 0
+0.017312 -0.165217 0
+0.212635 +0.210158 0
+0.000000 -0.000000 0
+0.409821 +0.233714 0
+0.538412 +0.532139 0
+0.399624 +0.394968 0
+0.616220 +0.469369 0
+0.612259 +0.605126 0
+0.612259 +0.605126 0
+0.538888 +0.441446 0
+0.399624 +0.394968 0
+0.538412 +0.532139 0
+0.212411 +0.178276 0
+0.212635 +0.210158 0
-0.176536 -0.254647 0
-0.364395 -0.477349 0
-0.194162 -0.251403 0
-0.444360 -0.670019 0
-0.554421 -0.768223 0
-0.489673 -0.655301 0
-0.496651 -0.844526 0
-0.477764 -0.768955 0
-0.550411 -0.806495 0
-0.304892 -0.735169 0
-0.167770 -0.503274 0
-0.344949 -0.662930 0
+0.043836 -0.418345 0
+0.231854 -0.108306 0
+0.032537 -0.310507 0
+0.387277 -0.051063 0
+0.534119 +0.231140 0
+0.406098 +0.079367 0
+0.563813 +0.203584 0
+0.596249 +0.369043 0
+0.600260 +0.330771 0
+0.488196 +0.251673 0
+0.386652 +0.264949 0
+0.522210 +0.344794 0
+0.191760 +0.109357 0
+0.205462 +0.143565 0
-0.128023 -0.217696 0
-0.289080 -0.465271 0
-0.154232 -0.243599 0
-0.321160 -0.579915 0
-0.436975 -0.769344 0
-0.387523 -0.645505 0
-0.355366 -0.753394 0
-0.369277 -0.819632 0
-0.430831 -0.827980 0
-0.210031 -0.700916 0
-0.113797 -0.629488 0
-0.259287 -0.749598 0
+0.049849 -0.475725 0
+0.211980 -0.307507 0
+0.049849 -0.475725 0
+0.303716 -0.193154 0
+0.455618 -0.004347 0
+0.352972 -0.144472 0
+0.431739 +0.024542 0
+0.501060 +0.157764 0
+0.507204 +0.099127 0
+0.371009 +0.104190 0
+0.323179 +0.139856 0
+0.437372 +0.169780 0
+0.145336 +0.052478 0
+0.171544 +0.078382 0
-0.067076 -0.125797 0
-0.184819 -0.340567 0
-0.098706 -0.177724 0
-0.167879 -0.337256 0
-0.277952 -0.571470 0
-0.247288 -0.475242 0
-0.184480 -0.444828 0
-0.231242 -0.628367 0
-0.272549 -0.623034 0
-0.106105 -0.426868 0
-0.063147 -0.517069 0
-0.158619 -0.590600 0
+0.032537 -0.310507 0
+0.149488 -0.306911 0
+0.043836 -0.418345 0
+0.167254 -0.156694 0
+0.307169 -0.096228 0
+0.241005 -0.195632 0
+0.234329 -0.030897 0
+0.334307 +0.033656 0
+0.339710 -0.017908 0
+0.200416 +0.026749 0
+0.214805 +0.054402 0
+0.291124 +0.056897 0
+0.078375 +0.017959 0
+0.113930 +0.032434 0
-0.063473 -0.125093 0
-0.033917 -0.065183 0
-0.095190 -0.211279 0
-0.084838 -0.175014 0
-0.078501 -0.235488 0
-0.093056 -0.231643 0
-0.019874 -0.199201 0
-0.053126 -0.223839 0
+0.053973 -0.126214 0
+0.017312 -0.165217 0
+0.108487 -0.050678 0
+0.085662 -0.086668 0
+0.117446 -0.001121 0
+0.119580 -0.021485 0
+0.075315 +0.012078 0
+0.102150 +0.009796 0
+0.039930 +0.007804 0
-0.020256 -0.004129 0
-0.020059 -0.003751 0
-0.039761 -0.009431 0
-0.059431 -0.012452 0
-0.114742 -0.024714 0
-0.112091 -0.019618 0
-0.058462 -0.010589 0
-0.037837 -0.005734 0
-0.090020 -0.011913 0
-0.051322 -0.004438 0
-0.176644 -0.029765 0
-0.152011 -0.016963 0
-0.218481 -0.019384 0
-0.174739 -0.001366 0
-0.111381 -0.005500 0
-0.059014 +0.001178 0
-0.120203 +0.010127 0
-0.060097 +0.011518 0
-0.235650 +0.009405 0
-0.177859 +0.028406 0
-0.226472 +0.056872 0
-0.161275 +0.071446 0
-0.115632 +0.035075 0
-0.054540 +0.026266 0
-0.098394 +0.068004 0
-0.043091 +0.044402 0
-0.192383 +0.120430 0
-0.127218 +0.124744 0
-0.137750 +0.194856 0
-0.079961 +0.183475 0
-0.070704 +0.106242 0
-0.027190 +0.064294 0
-0.035994 +0.146066 0
-0.008790 +0.083886 0
-0.069339 +0.272843 0
-0.025310 +0.241539 0
+0.004511 +0.345832 0
+0.030111 +0.292265 0
+0.001500 +0.183124 0
+0.009877 +0.100929 0
+0.037258 +0.212946 0
+0.026571 +0.113252 0
+0.074892 +0.405021 0
+0.079651 +0.329202 0
+0.133404 +0.442422 0
+0.117438 +0.346912 0
+0.067012 +0.231483 0
+0.039315 +0.119028 0
+0.087268 +0.235612 0
+0.046630 +0.117002 0
+0.173165 +0.451853 0
+0.139082 +0.341654 0
+0.189634 +0.429735 0
+0.142202 +0.311883 0
+0.095719 +0.223534 0
+0.047714 +0.106663 0
+0.091520 +0.195037 0
+0.042532 +0.088324 0
+0.181155 +0.375597 0
+0.126702 +0.258503 0
+0.149142 +0.292227 0
+0.094778 +0.184841 0
+0.075386 +0.151566 0
+0.031824 +0.063116 0
+0.049500 +0.096115 0
+0.017007 +0.032884 0
+0.097900 +0.185451 0
+0.050641 +0.096338 0
+0.034089 +0.063558 0
+0.017238 +0.032929 0
-0.057801 -0.016889 0
-0.096601 -0.024560 0
-0.073741 -0.027124 0
-0.130227 -0.041720 0
-0.212721 -0.074359 0
-0.245492 -0.071295 0
-0.166777 -0.045340 0
-0.182157 -0.040359 0
-0.256661 -0.058553 0
-0.246940 -0.039870 0
-0.327207 -0.101515 0
-0.332615 -0.078261 0
-0.404129 -0.098286 0
-0.381766 -0.055309 0
-0.317259 -0.048749 0
-0.283687 -0.017877 0
-0.341860 -0.011414 0
-0.288467 +0.027735 0
-0.434886 -0.058580 0
-0.387629 +0.000643 0
-0.416371 +0.018545 0
-0.350026 +0.087894 0
-0.328025 +0.053990 0
-0.261133 +0.095581 0
-0.277865 +0.143804 0
-0.205333 +0.180815 0
-0.351319 +0.128597 0
-0.273922 +0.200016 0
-0.247970 +0.262042 0
-0.168811 +0.326503 0
-0.197775 +0.250486 0
-0.128055 +0.275618 0
-0.097652 +0.363418 0
-0.038777 +0.370060 0
-0.119057 +0.405345 0
-0.047567 +0.453946 0
+0.019735 +0.542520 0
+0.075123 +0.567596 0
+0.010309 +0.470121 0
+0.051679 +0.453258 0
+0.113087 +0.557726 0
+0.132456 +0.514670 0
+0.151666 +0.657023 0
+0.184525 +0.653122 0
+0.260959 +0.733742 0
+0.267638 +0.698363 0
+0.198403 +0.614524 0
+0.193970 +0.545382 0
+0.256205 +0.631413 0
+0.229057 +0.539230 0
+0.334700 +0.760866 0
+0.314753 +0.694842 0
+0.364386 +0.731382 0
+0.320615 +0.638890 0
+0.279864 +0.603067 0
+0.233837 +0.493617 0
+0.266970 +0.528674 0
+0.208163 +0.409930 0
+0.346942 +0.644035 0
+0.285049 +0.532207 0
+0.285071 +0.503630 0
+0.212955 +0.381812 0
+0.219607 +0.412167 0
+0.155632 +0.293495 0
+0.144085 +0.261900 0
+0.083134 +0.153080 0
+0.186916 +0.320622 0
+0.113707 +0.199373 0
+0.065051 +0.110051 0
+0.050160 +0.089814 0
-0.087048 -0.040276 0
-0.159152 -0.064724 0
-0.097318 -0.055945 0
-0.182447 -0.093331 0
-0.280560 -0.157798 0
-0.343634 -0.168293 0
-0.251036 -0.112229 0
-0.299900 -0.114073 0
-0.385910 -0.159535 0
-0.406039 -0.134754 0
-0.430987 -0.230848 0
-0.464841 -0.208947 0
-0.531102 -0.260101 0
-0.532128 -0.203919 0
-0.476139 -0.169457 0
-0.465487 -0.117388 0
-0.511518 -0.134319 0
-0.471726 -0.057846 0
-0.569427 -0.236330 0
-0.537991 -0.147967 0
-0.541867 -0.157362 0
-0.482252 -0.042791 0
-0.488381 -0.052626 0
-0.424567 +0.042065 0
-0.410023 +0.070577 0
-0.330154 +0.174650 0
-0.452191 -0.028491 0
-0.372063 +0.103018 0
-0.311559 +0.138028 0
-0.221031 +0.274891 0
-0.286286 +0.224173 0
-0.200212 +0.327130 0
-0.132364 +0.392193 0
-0.050620 +0.483079 0
-0.137168 +0.324361 0
-0.047567 +0.453946 0
+0.049826 +0.509177 0
+0.127343 +0.619207 0
+0.033042 +0.555672 0
+0.100511 +0.624350 0
+0.189982 +0.694892 0
+0.235021 +0.733241 0
+0.226870 +0.670184 0
+0.282667 +0.750121 0
+0.372729 +0.786819 0
+0.399864 +0.829048 0
+0.319662 +0.791762 0
+0.336891 +0.794652 0
+0.406710 +0.832038 0
+0.394172 +0.797965 0
+0.470047 +0.842765 0
+0.465114 +0.843452 0
+0.507430 +0.827982 0
+0.470977 +0.787500 0
+0.441018 +0.807121 0
+0.400412 +0.738422 0
+0.418952 +0.715207 0
+0.355419 +0.617833 0
+0.480813 +0.740025 0
+0.417274 +0.662892 0
+0.393933 +0.584462 0
+0.311096 +0.478810 0
+0.343775 +0.561650 0
+0.265275 +0.444518 0
+0.225232 +0.358491 0
+0.141572 +0.232496 0
+0.257868 +0.374358 0
+0.165927 +0.250985 0
+0.089676 +0.128871 0
+0.078358 +0.123203 0
-0.104286 -0.073205 0
-0.199454 -0.126215 0
-0.107830 -0.090682 0
-0.209793 -0.161062 0
-0.310620 -0.259810 0
-0.394678 -0.298913 0
-0.300536 -0.208343 0
-0.375458 -0.231409 0
-0.461297 -0.311101 0
-0.507374 -0.297271 0
-0.476349 -0.393742 0
-0.532740 -0.393257 0
-0.585284 -0.473882 0
-0.607688 -0.429271 0
-0.567659 -0.364494 0
-0.579842 -0.310582 0
-0.607237 -0.357853 0
-0.584621 -0.264970 0
-0.624521 -0.488315 0
-0.610808 -0.399500 0
-0.589535 -0.433307 0
-0.542004 -0.304848 0
-0.575649 -0.288238 0
-0.521567 -0.161819 0
-0.477035 -0.160906 0
-0.398634 -0.010234 0
-0.484723 -0.313825 0
-0.409805 -0.154552 0
-0.322862 -0.142979 0
-0.230323 +0.034865 0
-0.323544 +0.011227 0
-0.230908 +0.173962 0
-0.133864 +0.209069 0
-0.038777 +0.370060 0
-0.123568 +0.059513 0
-0.025310 +0.241539 0
+0.089074 +0.269677 0
+0.180473 +0.440875 0
+0.069036 +0.409606 0
+0.154533 +0.554913 0
+0.260686 +0.588650 0
+0.325758 +0.705719 0
+0.289416 +0.462167 0
+0.362238 +0.608497 0
+0.453342 +0.613312 0
+0.498167 +0.723206 0
+0.418056 +0.723758 0
+0.454404 +0.802782 0
+0.522343 +0.796963 0
+0.525212 +0.831934 0
+0.561172 +0.703994 0
+0.572031 +0.769560 0
+0.600036 +0.721976 0
+0.575151 +0.739788 0
+0.561222 +0.796993 0
+0.529991 +0.786322 0
+0.530333 +0.720707 0
+0.468597 +0.667330 0
+0.565423 +0.663419 0
+0.507431 +0.634796 0
+0.461716 +0.533395 0
+0.377365 +0.464136 0
+0.433795 +0.573563 0
+0.348934 +0.484544 0
+0.283693 +0.369080 0
+0.185987 +0.254736 0
+0.301658 +0.345336 0
+0.201003 +0.244948 0
+0.104812 +0.119483 0
+0.098614 +0.127332 0
-0.107961 -0.106703 0
-0.213361 -0.194800 0
-0.104812 -0.119483 0
-0.210308 -0.223933 0
-0.301658 -0.345336 0
-0.395112 -0.422171 0
-0.310862 -0.307240 0
-0.401125 -0.364790 0
-0.476268 -0.470720 0
-0.540778 -0.488192 0
-0.461716 -0.533395 0
-0.531988 -0.572078 0
-0.565423 -0.663419 0
-0.604303 -0.656768 0
-0.584229 -0.577423 0
-0.615603 -0.548926 0
-0.621724 -0.614481 0
-0.616686 -0.538587 0
-0.600036 -0.721976 0
-0.603219 -0.667107 0
-0.561172 -0.703994 0
-0.528771 -0.602782 0
-0.584229 -0.577423 0
-0.543996 -0.457487 0
-0.476268 -0.470720 0
-0.406378 -0.314654 0
-0.453342 -0.613312 0
-0.389858 -0.472307 0
-0.289416 -0.462167 0
-0.203178 -0.291978 0
-0.310862 -0.307240 0
-0.220491 -0.126755 0
-0.107961 -0.106703 0
-0.008790 +0.083886 0
-0.089074 -0.269677 0
+0.008790 -0.083886 0
+0.123568 -0.059513 0
+0.220491 +0.126755 0
+0.107961 +0.106703 0
+0.203178 +0.291978 0
+0.310862 +0.307240 0
+0.389858 +0.472307 0
+0.322862 +0.142979 0
+0.406378 +0.314654 0
+0.484723 +0.313825 0
+0.543996 +0.457487 0
+0.476268 +0.470720 0
+0.528771 +0.602782 0
+0.584229 +0.577423 0
+0.603219 +0.667107 0
+0.589535 +0.433307 0
+0.616686 +0.538587 0
+0.624521 +0.488315 0
+0.615603 +0.548926 0
+0.621724 +0.614481 0
+0.604303 +0.656768 0
+0.584229 +0.577423 0
+0.531988 +0.572078 0
+0.585284 +0.473882 0
+0.540778 +0.488192 0
+0.476349 +0.393742 0
+0.401125 +0.364790 0
+0.476268 +0.470720 0
+0.395112 +0.422171 0
+0.310862 +0.307240 0
+0.210308 +0.223933 0
+0.310620 +0.259810 0
+0.213361 +0.194800 0
+0.107830 +0.090682 0
+0.107961 +0.106703 0
-0.098614 -0.127332 0
-0.201003 -0.244948 0
-0.089676 -0.128871 0
-0.185987 -0.254736 0
-0.257868 -0.374358 0
-0.348934 -0.484544 0
-0.283693 -0.369080 0
-0.377365 -0.464136 0
-0.433795 -0.573563 0
-0.507431 -0.634796 0
-0.393933 -0.584462 0
-0.468597 -0.667330 0
-0.480813 -0.740025 0
-0.529991 -0.786322 0
-0.530333 -0.720707 0
-0.575151 -0.739788 0
-0.561222 -0.796993 0
-0.572031 -0.769560 0
-0.507430 -0.827982 0
-0.525212 -0.831934 0
-0.470047 -0.842765 0
-0.454404 -0.802782 0
-0.522343 -0.796963 0
-0.498167 -0.723206 0
-0.418056 -0.723758 0
-0.362238 -0.608497 0
-0.372729 -0.786819 0
-0.325758 -0.705719 0
-0.226870 -0.670184 0
-0.154533 -0.554913 0
-0.260686 -0.588650 0
-0.180473 -0.440875 0
-0.069036 -0.409606 0
+0.025310 -0.241539 0
-0.049826 -0.509177 0
+0.038777 -0.370060 0
+0.137168 -0.324361 0
+0.230908 -0.173962 0
+0.133864 -0.209069 0
+0.230323 -0.034865 0
+0.323544 -0.011227 0
+0.409805 +0.154552 0
+0.311559 -0.138028 0
+0.398634 +0.010234 0
+0.452191 +0.028491 0
+0.521567 +0.161819 0
+0.477035 +0.160906 0
+0.542004 +0.304848 0
+0.575649 +0.288238 0
+0.610808 +0.399500 0
+0.541867 +0.157362 0
+0.584621 +0.264970 0
+0.569427 +0.236330 0
+0.579842 +0.310582 0
+0.607237 +0.357853 0
+0.607688 +0.429271 0
+0.567659 +0.364494 0
+0.532740 +0.393257 0
+0.531102 +0.260101 0
+0.507374 +0.297271 0
+0.430987 +0.230848 0
+0.375458 +0.231409 0
+0.461297 +0.311101 0
+0.394678 +0.298913 0
+0.300536 +0.208343 0
+0.209793 +0.161062 0
+0.280560 +0.157798 0
+0.199454 +0.126215 0
+0.097318 +0.055945 0
+0.104286 +0.073205 0
-0.078358 -0.123203 0
-0.165927 -0.250985 0
-0.065051 -0.110051 0
-0.141572 -0.232496 0
-0.186916 -0.320622 0
-0.265275 -0.444518 0
-0.225232 -0.358491 0
-0.311096 -0.478810 0
-0.343775 -0.561650 0
-0.417274 -0.662892 0
-0.285071 -0.503630 0
-0.355419 -0.617833 0
-0.346942 -0.644035 0
-0.400412 -0.738422 0
-0.418952 -0.715207 0
-0.470977 -0.787500 0
-0.441018 -0.807121 0
-0.465114 -0.843452 0
-0.364386 -0.731382 0
-0.394172 -0.797965 0
-0.334700 -0.760866 0
-0.336891 -0.794652 0
-0.406710 -0.832038 0
-0.399864 -0.829048 0
-0.319662 -0.791762 0
-0.282667 -0.750121 0
-0.260959 -0.733742 0
-0.235021 -0.733241 0
-0.151666 -0.657023 0
-0.100511 -0.624350 0
-0.189982 -0.694892 0
-0.127343 -0.619207 0
-0.033042 -0.555672 0
+0.047567 -0.453946 0
-0.019735 -0.542520 0
+0.050620 -0.483079 0
+0.119057 -0.405345 0
+0.200212 -0.327130 0
+0.132364 -0.392193 0
+0.221031 -0.274891 0
+0.286286 -0.224173 0
+0.372063 -0.103018 0
+0.247970 -0.262042 0
+0.330154 -0.174650 0
+0.351319 -0.128597 0
+0.424567 -0.042065 0
+0.410023 -0.070577 0
+0.482252 +0.042791 0
+0.488381 +0.052626 0
+0.537991 +0.147967 0
+0.416371 -0.018545 0
+0.471726 +0.057846 0
+0.434886 +0.058580 0
+0.465487 +0.117388 0