# vtk DataFile Version 2.0
MyTitle
ASCII
DATASET UNSTRUCTURED_GRID
POINTS 1045 double
1.000000 -1.000000 0.000000
1.000000 1.000000 0.000000
-1.000000 1.000000 0.000000
-1.000000 -1.000000 0.000000
1.000000 -0.888889 0.000000
1.000000 -0.777778 0.000000
1.000000 -0.666667 0.000000
1.000000 -0.555556 0.000000
1.000000 -0.444444 0.000000
1.000000 -0.333333 0.000000
1.000000 -0.222222 0.000000
1.000000 -0.111111 0.000000
1.000000 -0.000000 0.000000
1.000000 0.111111 0.000000
1.000000 0.222222 0.000000
1.000000 0.333333 0.000000
1.000000 0.444444 0.000000
1.000000 0.555556 0.000000
1.000000 0.666667 0.000000
1.000000 0.777778 0.000000
1.000000 0.888889 0.000000
1.000000 -0.944444 0.000000
1.000000 -0.833333 0.000000
1.000000 -0.722222 0.000000
1.000000 -0.611111 0.000000
1.000000 -0.500000 0.000000
1.000000 -0.388889 0.000000
1.000000 -0.277778 0.000000
1.000000 -0.166667 0.000000
1.000000 -0.055556 0.000000
1.000000 0.055556 0.000000
1.000000 0.166667 0.000000
1.000000 0.277778 0.000000
1.000000 0.388889 0.000000
1.000000 0.500000 0.000000
1.000000 0.611111 0.000000
1.000000 0.722222 0.000000
1.000000 0.833333 0.000000
1.000000 0.944444 0.000000
0.888889 1.000000 0.000000
0.777778 1.000000 0.000000
0.666667 1.000000 0.000000
0.555556 1.000000 0.000000
0.444444 1.000000 0.000000
0.333333 1.000000 0.000000
0.222222 1.000000 0.000000
0.111111 1.000000 0.000000
0.000000 1.000000 0.000000
-0.111111 1.000000 0.000000
-0.222222 1.000000 0.000000
-0.333333 1.000000 0.000000
-0.444444 1.000000 0.000000
-0.555556 1.000000 0.000000
-0.666667 1.000000 0.000000
-0.777778 1.000000 0.000000
-0.888889 1.000000 0.000000
0.944444 1.000000 0.000000
0.833333 1.000000 0.000000
0.722222 1.000000 0.000000
0.611111 1.000000 0.000000
0.500000 1.000000 0.000000
0.388889 1.000000 0.000000
0.277778 1.000000 0.000000
0.166667 1.000000 0.000000
0.055556 1.000000 0.000000
-0.055556 1.000000 0.000000
-0.166667 1.000000 0.000000
-0.277778 1.000000 0.000000
-0.388889 1.000000 0.000000
-0.500000 1.000000 0.000000
-0.611111 1.000000 0.000000
-0.722222 1.000000 0.000000
-0.833333 1.000000 0.000000
-0.944444 1.000000 0.000000
-1.000000 0.888889 0.000000
-1.000000 0.777778 0.000000
-1.000000 0.666667 0.000000
-1.000000 0.555556 0.000000
-1.000000 0.444444 0.000000
-1.000000 0.333333 0.000000
-1.000000 0.222222 0.000000
-1.000000 0.111111 0.000000
-1.000000 0.000000 0.000000
-1.000000 -0.111111 0.000000
-1.000000 -0.222222 0.000000
-1.000000 -0.333333 0.000000
-1.000000 -0.444444 0.000000
-1.000000 -0.555556 0.000000
-1.000000 -0.666667 0.000000
-1.000000 -0.777778 0.000000
-1.000000 -0.888889 0.000000
-1.000000 0.944444 0.000000
-1.000000 0.833333 0.000000
-1.000000 0.722222 0.000000
-1.000000 0.611111 0.000000
-1.000000 0.500000 0.000000
-1.000000 0.388889 0.000000
-1.000000 0.277778 0.000000
-1.000000 0.166667 0.000000
-1.000000 0.055556 0.000000
-1.000000 -0.055556 0.000000
-1.000000 -0.166667 0.000000
-1.000000 -0.277778 0.000000
-1.000000 -0.388889 0.000000
-1.000000 -0.500000 0.000000
-1.000000 -0.611111 0.000000
-1.000000 -0.722222 0.000000
-1.000000 -0.833333 0.000000
-1.000000 -0.944444 0.000000
-0.888889 -1.000000 0.000000
-0.777778 -1.000000 0.000000
-0.666667 -1.000000 0.000000
-0.555556 -1.000000 0.000000
-0.444444 -1.000000 0.000000
-0.333333 -1.000000 0.000000
-0.222222 -1.000000 0.000000
-0.111111 -1.000000 0.000000
-0.000000 -1.000000 0.000000
0.111111 -1.000000 0.000000
0.222222 -1.000000 0.000000
0.333333 -1.000000 0.000000
0.444444 -1.000000 0.000000
0.555556 -1.000000 0.000000
0.666667 -1.000000 0.000000
0.777778 -1.000000 0.000000
0.888889 -1.000000 0.000000
-0.944444 -1.000000 0.000000
-0.833333 -1.000000 0.000000
-0.722222 -1.000000 0.000000
-0.611111 -1.000000 0.000000
-0.500000 -1.000000 0.000000
-0.388889 -1.000000 0.000000
-0.277778 -1.000000 0.000000
-0.166667 -1.000000 0.000000
-0.055556 -1.000000 0.000000
0.055556 -1.000000 0.000000
0.166667 -1.000000 0.000000
0.277778 -1.000000 0.000000
0.388889 -1.000000 0.000000
0.500000 -1.000000 0.000000
0.611111 -1.000000 0.000000
0.722222 -1.000000 0.000000
0.833333 -1.000000 0.000000
0.944444 -1.000000 0.000000
-0.777778 0.777778 0.000000
-0.555556 0.777778 0.000000
-0.333333 0.777778 0.000000
-0.111111 0.777778 0.000000
0.111111 0.777778 0.000000
0.333333 0.777778 0.000000
0.555556 0.777778 0.000000
0.777778 0.777778 0.000000
-0.777778 0.555556 0.000000
-0.555556 0.555556 0.000000
-0.333333 0.555556 0.000000
-0.111111 0.555556 0.000000
0.111111 0.555556 0.000000
0.333333 0.555556 0.000000
0.555556 0.555556 0.000000
0.777778 0.555556 0.000000
-0.777778 0.333333 0.000000
-0.555556 0.333333 0.000000
-0.333333 0.333333 0.000000
-0.111111 0.333333 0.000000
0.111111 0.333333 0.000000
0.333333 0.333333 0.000000
0.555556 0.333333 0.000000
0.777778 0.333333 0.000000
-0.777778 0.111111 0.000000
-0.555556 0.111111 0.000000
-0.333333 0.111111 0.000000
-0.111111 0.111111 0.000000
0.111111 0.111111 0.000000
0.333333 0.111111 0.000000
0.555556 0.111111 0.000000
0.777778 0.111111 0.000000
-0.777778 -0.111111 0.000000
-0.555556 -0.111111 0.000000
-0.333333 -0.111111 0.000000
-0.111111 -0.111111 0.000000
0.111111 -0.111111 0.000000
0.333333 -0.111111 0.000000
0.555556 -0.111111 0.000000
0.777778 -0.111111 0.000000
-0.777778 -0.333333 0.000000
-0.555556 -0.333333 0.000000
-0.333333 -0.333333 0.000000
-0.111111 -0.333333 0.000000
0.111111 -0.333333 0.000000
0.333333 -0.333333 0.000000
0.555556 -0.333333 0.000000
0.777778 -0.333333 0.000000
-0.777778 -0.555556 0.000000
-0.555556 -0.555556 0.000000
-0.333333 -0.555556 0.000000
-0.111111 -0.555556 0.000000
0.111111 -0.555556 0.000000
0.333333 -0.555556 0.000000
0.555556 -0.555556 0.000000
0.777778 -0.555556 0.000000
-0.777778 -0.777778 0.000000
-0.555556 -0.777778 0.000000
-0.333333 -0.777778 0.000000
-0.111111 -0.777778 0.000000
0.111111 -0.777778 0.000000
0.333333 -0.777778 0.000000
0.555556 -0.777778 0.000000
0.777778 -0.777778 0.000000
-0.888889 0.777778 0.000000
-0.777778 0.888889 0.000000
-0.888889 0.888889 0.000000
-0.666667 0.777778 0.000000
-0.555556 0.888889 0.000000
-0.666667 0.888889 0.000000
-0.444444 0.777778 0.000000
-0.333333 0.888889 0.000000
-0.444444 0.888889 0.000000
-0.222222 0.777778 0.000000
-0.111111 0.888889 0.000000
-0.222222 0.888889 0.000000
0.000000 0.777778 0.000000
0.111111 0.888889 0.000000
0.000000 0.888889 0.000000
0.222222 0.777778 0.000000
0.333333 0.888889 0.000000
0.222222 0.888889 0.000000
0.444444 0.777778 0.000000
0.555556 0.888889 0.000000
0.444444 0.888889 0.000000
0.666667 0.777778 0.000000
0.777778 0.888889 0.000000
0.666667 0.888889 0.000000
0.888889 0.777778 0.000000
0.888889 0.888889 0.000000
-0.888889 0.555556 0.000000
-0.777778 0.666667 0.000000
-0.888889 0.666667 0.000000
-0.666667 0.555556 0.000000
-0.555556 0.666667 0.000000
-0.666667 0.666667 0.000000
-0.444444 0.555556 0.000000
-0.333333 0.666667 0.000000
-0.444444 0.666667 0.000000
-0.222222 0.555556 0.000000
-0.111111 0.666667 0.000000
-0.222222 0.666667 0.000000
0.000000 0.555556 0.000000
0.111111 0.666667 0.000000
0.000000 0.666667 0.000000
0.222222 0.555556 0.000000
0.333333 0.666667 0.000000
0.222222 0.666667 0.000000
0.444444 0.555556 0.000000
0.555556 0.666667 0.000000
0.444444 0.666667 0.000000
0.666667 0.555556 0.000000
0.777778 0.666667 0.000000
0.666667 0.666667 0.000000
0.888889 0.555556 0.000000
0.888889 0.666667 0.000000
-0.888889 0.333333 0.000000
-0.777778 0.444444 0.000000
-0.888889 0.444444 0.000000
-0.666667 0.333333 0.000000
-0.555556 0.444444 0.000000
-0.666667 0.444444 0.000000
-0.444444 0.333333 0.000000
-0.333333 0.444444 0.000000
-0.444444 0.444444 0.000000
-0.222222 0.333333 0.000000
-0.111111 0.444444 0.000000
-0.222222 0.444444 0.000000
0.000000 0.333333 0.000000
0.111111 0.444444 0.000000
0.000000 0.444444 0.000000
0.222222 0.333333 0.000000
0.333333 0.444444 0.000000
0.222222 0.444444 0.000000
0.444444 0.333333 0.000000
0.555556 0.444444 0.000000
0.444444 0.444444 0.000000
0.666667 0.333333 0.000000
0.777778 0.444444 0.000000
0.666667 0.444444 0.000000
0.888889 0.333333 0.000000
0.888889 0.444444 0.000000
-0.888889 0.111111 0.000000
-0.777778 0.222222 0.000000
-0.888889 0.222222 0.000000
-0.666667 0.111111 0.000000
-0.555556 0.222222 0.000000
-0.666667 0.222222 0.000000
-0.444444 0.111111 0.000000
-0.333333 0.222222 0.000000
-0.444444 0.222222 0.000000
-0.222222 0.111111 0.000000
-0.111111 0.222222 0.000000
-0.222222 0.222222 0.000000
0.000000 0.111111 0.000000
0.111111 0.222222 0.000000
0.000000 0.222222 0.000000
0.222222 0.111111 0.000000
0.333333 0.222222 0.000000
0.222222 0.222222 0.000000
0.444444 0.111111 0.000000
0.555556 0.222222 0.000000
0.444444 0.222222 0.000000
0.666667 0.111111 0.000000
0.777778 0.222222 0.000000
0.666667 0.222222 0.000000
0.888889 0.111111 0.000000
0.888889 0.222222 0.000000
-0.888889 -0.111111 0.000000
-0.777778 0.000000 0.000000
-0.888889 0.000000 0.000000
-0.666667 -0.111111 0.000000
-0.555556 0.000000 0.000000
-0.666667 0.000000 0.000000
-0.444444 -0.111111 0.000000
-0.333333 0.000000 0.000000
-0.444444 0.000000 0.000000
-0.222222 -0.111111 0.000000
-0.111111 0.000000 0.000000
-0.222222 0.000000 0.000000
-0.000000 -0.111111 0.000000
0.111111 -0.000000 0.000000
-0.000000 -0.000000 0.000000
0.222222 -0.111111 0.000000
0.333333 -0.000000 0.000000
0.222222 -0.000000 0.000000
0.444444 -0.111111 0.000000
0.555556 -0.000000 0.000000
0.444444 -0.000000 0.000000
0.666667 -0.111111 0.000000
0.777778 -0.000000 0.000000
0.666667 -0.000000 0.000000
0.888889 -0.111111 0.000000
0.888889 -0.000000 0.000000
-0.888889 -0.333333 0.000000
-0.777778 -0.222222 0.000000
-0.888889 -0.222222 0.000000
-0.666667 -0.333333 0.000000
-0.555556 -0.222222 0.000000
-0.666667 -0.222222 0.000000
-0.444444 -0.333333 0.000000
-0.333333 -0.222222 0.000000
-0.444444 -0.222222 0.000000
-0.222222 -0.333333 0.000000
-0.111111 -0.222222 0.000000
-0.222222 -0.222222 0.000000
-0.000000 -0.333333 0.000000
0.111111 -0.222222 0.000000
-0.000000 -0.222222 0.000000
0.222222 -0.333333 0.000000
0.333333 -0.222222 0.000000
[...]
POINT_DATA 1045
VECTORS sol double
+0.000000 +0.000000 0
+0.000000 +0.000000 0
+0.000000 +0.000000 0
+0.000000 +0.000000 0
+0.000000 +0.000000 0
+0.000000 +0.000000 0
+0.000000 +0.000000 0
+0.000000 +0.000000 0
+0.000000 +0.000000 0
+0.000000 +0.000000 0
+0.000000 +0.000000 0
+0.000000 +0.000000 0
+0.000000 +0.000000 0
+0.000000 +0.000000 0
+0.000000 +0.000000 0
+0.000000 +0.000000 0
+0.000000 +0.000000 0
+0.000000 +0.000000 0
+0.000000 +0.000000 0
+0.000000 +0.000000 0
+0.000000 +0.000000 0
+0.000000 +0.000000 0
+0.000000 +0.000000 0
+0.000000 +0.000000 0
+0.000000 +0.000000 0
+0.000000 +0.000000 0
+0.000000 +0.000000 0
+0.000000 +0.000000 0
+0.000000 +0.000000 0
+0.000000 +0.000000 0
+0.000000 +0.000000 0
+0.000000 +0.000000 0
+0.000000 +0.000000 0
+0.000000 +0.000000 0
+0.000000 +0.000000 0
+0.000000 +0.000000 0
+0.000000 +0.000000 0
+0.000000 +0.000000 0
+0.000000 +0.000000 0
+0.000000 +0.000000 0
+0.000000 +0.000000 0
+0.000000 +0.000000 0
+0.000000 +0.000000 0
+0.000000 +0.000000 0
+0.000000 +0.000000 0
+0.000000 +0.000000 0
+0.000000 +0.000000 0
+0.000000 +0.000000 0
+0.000000 +0.000000 0
+0.000000 +0.000000 0
+0.000000 +0.000000 0
+0.000000 +0.000000 0
+0.000000 +0.000000 0
+0.000000 +0.000000 0
+0.000000 +0.000000 0
+0.000000 +0.000000 0
+0.000000 +0.000000 0
+0.000000 +0.000000 0
+0.000000 +0.000000 0
+0.000000 +0.000000 0
+0.000000 +0.000000 0
+0.000000 +0.000000 0
+0.000000 +0.000000 0
+0.000000 +0.000000 0
+0.000000 +0.000000 0
+0.000000 +0.000000 0
+0.000000 +0.000000 0
+0.000000 +0.000000 0
+0.000000 +0.000000 0
+0.000000 +0.000000 0
+0.000000 +0.000000 0
+0.000000 +0.000000 0
+0.000000 +0.000000 0
+0.000000 +0.000000 0
+0.000000 +0.000000 0
+0.000000 +0.000000 0
+0.000000 +0.000000 0
+0.000000 +0.000000 0
+0.000000 +0.000000 0
+0.000000 +0.000000 0
+0.000000 +0.000000 0
+0.000000 +0.000000 0
+0.000000 +0.000000 0
+0.000000 +0.000000 0
+0.000000 +0.000000 0
+0.000000 +0.000000 0
+0.000000 +0.000000 0
+0.000000 +0.000000 0
+0.000000 +0.000000 0
+0.000000 +0.000000 0
+0.000000 +0.000000 0
+0.000000 +0.000000 0
+0.000000 +0.000000 0
+0.000000 +0.000000 0
+0.000000 +0.000000 0
+0.000000 +0.000000 0
+0.000000 +0.000000 0
+0.000000 +0.000000 0
+0.000000 +0.000000 0
+0.000000 +0.000000 0
+0.000000 +0.000000 0
+0.000000 +0.000000 0
+0.000000 +0.000000 0
+0.000000 +0.000000 0
+0.000000 +0.000000 0
+0.000000 +0.000000 0
+0.000000 +0.000000 0
+0.000000 +0.000000 0
+0.000000 +0.000000 0
+0.000000 +0.000000 0
+0.000000 +0.000000 0
+0.000000 +0.000000 0
+0.000000 +0.000000 0
+0.000000 +0.000000 0
+0.000000 +0.000000 0
+0.000000 +0.000000 0
+0.000000 +0.000000 0
+0.000000 +0.000000 0
+0.000000 +0.000000 0
+0.000000 +0.000000 0
+0.000000 +0.000000 0
+0.000000 +0.000000 0
+0.000000 +0.000000 0
+0.000000 +0.000000 0
+0.000000 +0.000000 0
+0.000000 +0.000000 0
+0.000000 +0.000000 0
+0.000000 +0.000000 0
+0.000000 +0.000000 0
+0.000000 +0.000000 0
+0.000000 +0.000000 0
+0.000000 +0.000000 0
+0.000000 +0.000000 0
+0.000000 +0.000000 0
+0.000000 +0.000000 0
+0.000000 +0.000000 0
+0.000000 +0.000000 0
+0.000000 +0.000000 0
+0.000000 +0.000000 0
+0.000000 +0.000000 0
+0.000000 +0.000000 0
+0.000000 +0.000000 0
+0.000000 +0.000000 0
+0.000000 +0.000000 0
-0.043474 +0.108599 0
-0.081704 +0.204099 0
-0.110079 +0.274982 0
-0.125178 +0.312698 0
-0.125178 +0.312698 0
-0.110079 +0.274982 0
-0.081704 +0.204099 0
-0.043474 +0.108599 0
-0.081704 +0.204099 0
-0.153553 +0.383581 0
-0.206882 +0.516797 0
-0.235257 +0.587680 0
-0.235257 +0.587680 0
-0.206882 +0.516797 0
-0.153553 +0.383581 0
-0.081704 +0.204099 0
-0.110079 +0.274982 0
-0.206882 +0.516797 0
-0.278731 +0.696279 0
-0.316961 +0.791780 0
-0.316961 +0.791780 0
-0.278731 +0.696279 0
-0.206882 +0.516797 0
-0.110079 +0.274982 0
-0.125178 +0.312698 0
-0.235257 +0.587680 0
-0.316961 +0.791780 0
-0.360435 +0.900378 0
-0.360435 +0.900378 0
-0.316961 +0.791780 0
-0.235257 +0.587680 0
-0.125178 +0.312698 0
-0.125178 +0.312698 0
-0.235257 +0.587680 0
-0.316961 +0.791780 0
-0.360435 +0.900378 0
-0.360435 +0.900378 0
-0.316961 +0.791780 0
-0.235257 +0.587680 0
-0.125178 +0.312698 0
-0.110079 +0.274982 0
-0.206882 +0.516797 0
-0.278731 +0.696279 0
-0.316961 +0.791780 0
-0.316961 +0.791780 0
-0.278731 +0.696279 0
-0.206882 +0.516797 0
-0.110079 +0.274982 0
-0.081704 +0.204099 0
-0.153553 +0.383581 0
-0.206882 +0.516797 0
-0.235257 +0.587680 0
-0.235257 +0.587680 0
-0.206882 +0.516797 0
-0.153553 +0.383581 0
-0.081704 +0.204099 0
-0.043474 +0.108599 0
-0.081704 +0.204099 0
-0.110079 +0.274982 0
-0.125178 +0.312698 0
-0.125178 +0.312698 0
-0.110079 +0.274982 0
-0.081704 +0.204099 0
-0.043474 +0.108599 0
-0.022072 +0.055137 0
-0.022072 +0.055137 0
-0.011206 +0.027994 0
-0.063554 +0.158761 0
-0.041482 +0.103624 0
-0.032267 +0.080605 0
-0.097371 +0.243236 0
-0.055889 +0.139612 0
-0.049437 +0.123494 0
-0.119443 +0.298373 0
-0.063554 +0.158761 0
-0.060643 +0.151488 0
-0.127109 +0.317522 0
-0.063554 +0.158761 0
-0.064535 +0.161210 0
-0.119443 +0.298373 0
-0.055889 +0.139612 0
-0.060643 +0.151488 0
-0.097371 +0.243236 0
-0.041482 +0.103624 0
-0.049437 +0.123494 0
-0.063554 +0.158761 0
-0.022072 +0.055137 0
-0.032267 +0.080605 0
-0.022072 +0.055137 0
-0.011206 +0.027994 0
-0.041482 +0.103624 0
-0.063554 +0.158761 0
-0.032267 +0.080605 0
-0.119443 +0.298373 0
-0.119443 +0.298373 0
-0.092910 +0.232093 0
-0.182998 +0.457134 0
-0.160925 +0.401997 0
-0.142347 +0.355587 0
-0.224480 +0.560758 0
-0.182998 +0.457134 0
-0.174614 +0.436192 0
-0.238886 +0.596746 0
-0.182998 +0.457134 0
-0.185821 +0.464186 0
-0.224480 +0.560758 0
-0.160925 +0.401997 0
-0.174614 +0.436192 0
-0.182998 +0.457134 0
-0.119443 +0.298373 0
-0.142347 +0.355587 0
-0.119443 +0.298373 0
-0.063554 +0.158761 0
-0.092910 +0.232093 0
-0.041482 +0.103624 0
-0.032267 +0.080605 0
-0.055889 +0.139612 0
-0.097371 +0.243236 0
-0.049437 +0.123494 0
-0.160925 +0.401997 0
-0.182998 +0.457134 0
-0.142347 +0.355587 0
-0.246552 +0.615895 0
-0.246552 +0.615895 0
-0.218088 +0.544791 0
-0.302441 +0.755507 0
-0.280369 +0.700370 0
-0.267525 +0.668285 0
-0.321851 +0.803994 0
-0.280369 +0.700370 0
-0.284694 +0.711174 0
-0.302441 +0.755507 0
-0.246552 +0.615895 0
-0.267525 +0.668285 0
-0.246552 +0.615895 0
-0.182998 +0.457134 0
-0.218088 +0.544791 0
-0.160925 +0.401997 0
-0.097371 +0.243236 0
-0.142347 +0.355587 0
-0.055889 +0.139612 0
-0.049437 +0.123494 0
-0.063554 +0.158761 0
-0.119443 +0.298373 0
-0.060643 +0.151488 0
-0.182998 +0.457134 0
-0.224480 +0.560758 0
-0.174614 +0.436192 0
-0.280369 +0.700370 0
-0.302441 +0.755507 0
-0.267525 +0.668285 0
-0.343923 +0.859131 0
-0.343923 +0.859131 0
-0.328167 +0.819773 0
-0.365995 +0.914268 0
-0.343923 +0.859131 0
-0.349228 +0.872385 0
-0.343923 +0.859131 0
-0.302441 +0.755507 0
-0.328167 +0.819773 0
-0.280369 +0.700370 0
-0.224480 +0.560758 0
-0.267525 +0.668285 0
-0.182998 +0.457134 0
-0.119443 +0.298373 0
-0.174614 +0.436192 0
-0.063554 +0.158761 0
-0.060643 +0.151488 0
-0.063554 +0.158761 0
-0.127109 +0.317522 0
-0.064535 +0.161210 0
-0.182998 +0.457134 0
-0.238886 +0.596746 0
-0.185821 +0.464186 0
-0.280369 +0.700370 0
-0.321851 +0.803994 0
-0.284694 +0.711174 0
-0.343923 +0.859131 0
-0.365995 +0.914268 0
-0.349228 +0.872385 0
-0.365995 +0.914268 0
-0.365995 +0.914268 0
-0.371641 +0.928372 0
-0.343923 +0.859131 0
-0.321851 +0.803994 0
-0.349228 +0.872385 0
-0.280369 +0.700370 0
-0.238886 +0.596746 0
-0.284694 +0.711174 0
-0.182998 +0.457134 0
-0.127109 +0.317522 0
-0.185821 +0.464186 0
-0.063554 +0.158761 0
-0.064535 +0.161210 0
-0.055889 +0.139612 0
-0.119443 +0.298373 0
-0.060643 +0.151488 0
-0.160925 +0.401997 0
-0.224480 +0.560758 0
-0.174614 +0.436192 0
-0.246552 +0.615895 0
-0.302441 +0.755507 0
-0.267525 +0.668285 0
-0.302441 +0.755507 0
-0.343923 +0.859131 0
-0.328167 +0.819773 0
-0.321851 +0.803994 0
-0.343923 +0.859131 0
-0.349228 +0.872385 0
-0.302441 +0.755507 0
-0.302441 +0.755507 0
-0.328167 +0.819773 0
-0.246552 +0.615895 0
-0.224480 +0.560758 0
-0.267525 +0.668285 0
-0.160925 +0.401997 0
-0.119443 +0.298373 0
-0.174614 +0.436192 0
-0.055889 +0.139612 0
-0.060643 +0.151488 0
-0.041482 +0.103624 0
-0.097371 +0.243236 0
-0.049437 +0.123494 0
-0.119443 +0.298373 0
-0.182998 +0.457134 0
-0.142347 +0.355587 0
-0.182998 +0.457134 0
-0.246552 +0.615895 0
-0.218088 +0.544791 0
-0.224480 +0.560758 0
-0.280369 +0.700370 0
-0.267525 +0.668285 0
-0.238886 +0.596746 0
-0.280369 +0.700370 0
-0.284694 +0.711174 0
-0.224480 +0.560758 0
-0.246552 +0.615895 0
-0.267525 +0.668285 0
-0.182998 +0.457134 0
-0.182998 +0.457134 0
-0.218088 +0.544791 0
-0.119443 +0.298373 0
-0.097371 +0.243236 0
-0.142347 +0.355587 0
-0.041482 +0.103624 0
-0.049437 +0.123494 0
-0.022072 +0.055137 0
-0.063554 +0.158761 0
-0.032267 +0.080605 0
-0.063554 +0.158761 0
-0.119443 +0.298373 0
-0.092910 +0.232093 0
-0.097371 +0.243236 0
-0.160925 +0.401997 0
-0.142347 +0.355587 0
-0.119443 +0.298373 0
-0.182998 +0.457134 0
-0.174614 +0.436192 0
-0.127109 +0.317522 0
-0.182998 +0.457134 0
-0.185821 +0.464186 0
-0.119443 +0.298373 0
-0.160925 +0.401997 0
-0.174614 +0.436192 0
-0.097371 +0.243236 0
-0.119443 +0.298373 0
-0.142347 +0.355587 0
-0.063554 +0.158761 0
-0.063554 +0.158761 0
-0.092910 +0.232093 0
-0.022072 +0.055137 0
-0.032267 +0.080605 0
-0.022072 +0.055137 0
-0.011206 +0.027994 0
-0.041482 +0.103624 0
-0.032267 +0.080605 0
-0.055889 +0.139612 0
-0.049437 +0.123494 0
-0.063554 +0.158761 0
-0.060643 +0.151488 0
-0.063554 +0.158761 0
-0.064535 +0.161210 0
-0.055889 +0.139612 0
-0.060643 +0.151488 0
-0.041482 +0.103624 0
-0.049437 +0.123494 0
-0.022072 +0.055137 0
-0.032267 +0.080605 0
-0.011206 +0.027994 0
-0.005625 +0.014051 0
-0.005625 +0.014051 0
-0.011078 +0.027674 0
-0.016703 +0.041725 0
-0.032898 +0.082182 0
-0.032898 +0.082182 0
-0.016703 +0.041725 0
-0.011078 +0.027674 0
-0.027274 +0.068131 0
-0.016195 +0.040457 0
-0.053719 +0.134192 0
-0.048094 +0.120141 0
-0.072907 +0.182125 0
-0.061829 +0.154451 0
-0.037016 +0.092467 0
-0.020821 +0.052010 0
-0.045633 +0.113994 0
-0.024813 +0.061984 0
-0.089880 +0.224524 0
-0.073685 +0.184067 0
-0.104122 +0.260101 0
-0.083302 +0.208091 0
-0.052864 +0.132057 0
-0.028051 +0.070073 0
-0.058489 +0.146107 0
-0.030438 +0.076034 0
-0.115201 +0.287775 0
-0.090388 +0.225792 0
-0.122779 +0.306706 0
-0.094727 +0.236632 0
-0.062336 +0.155718 0
-0.031899 +0.079684 0
-0.064290 +0.160598 0
-0.032391 +0.080914 0
-0.126626 +0.316317 0
-0.096189 +0.240283 0
-0.126626 +0.316317 0
-0.094727 +0.236632 0
-0.064290 +0.160598 0
-0.031899 +0.079684 0
-0.062336 +0.155718 0
-0.030438 +0.076034 0
-0.122779 +0.306706 0
-0.090388 +0.225792 0
-0.115201 +0.287775 0
-0.083302 +0.208091 0
-0.058489 +0.146107 0
-0.028051 +0.070073 0
-0.052864 +0.132057 0
-0.024813 +0.061984 0
-0.104122 +0.260101 0
-0.073685 +0.184067 0
-0.089880 +0.224524 0
-0.061829 +0.154451 0
-0.045633 +0.113994 0
-0.020821 +0.052010 0
-0.037016 +0.092467 0
-0.016195 +0.040457 0
-0.072907 +0.182125 0
-0.048094 +0.120141 0
-0.053719 +0.134192 0
-0.032898 +0.082182 0
-0.027274 +0.068131 0
-0.011078 +0.027674 0
-0.016703 +0.041725 0
-0.005625 +0.014051 0
-0.032898 +0.082182 0
-0.016703 +0.041725 0
-0.011078 +0.027674 0
-0.005625 +0.014051 0
-0.016195 +0.040457 0
-0.027274 +0.068131 0
-0.020821 +0.052010 0
-0.037016 +0.092467 0
-0.061829 +0.154451 0
-0.072907 +0.182125 0
-0.048094 +0.120141 0
-0.053719 +0.134192 0
-0.078532 +0.196175 0
-0.078532 +0.196175 0
-0.100959 +0.252198 0
-0.106583 +0.266249 0
-0.137021 +0.342283 0
-0.137021 +0.342283 0
-0.106583 +0.266249 0
-0.100959 +0.252198 0
-0.131396 +0.328232 0
-0.120318 +0.300558 0
-0.168920 +0.421967 0
-0.163295 +0.407917 0
-0.195686 +0.488830 0
-0.184608 +0.461156 0
-0.152217 +0.380243 0
-0.136021 +0.339786 0
-0.168412 +0.420699 0
-0.147592 +0.368689 0
-0.216507 +0.540841 0
-0.200311 +0.500384 0
-0.230749 +0.576418 0
-0.209928 +0.524408 0
-0.179491 +0.448374 0
-0.154678 +0.386390 0
-0.185115 +0.462424 0
-0.157064 +0.392351 0
-0.237979 +0.594481 0
-0.213167 +0.532497 0
-0.237979 +0.594481 0
-0.209928 +0.524408 0
-0.185115 +0.462424 0
-0.154678 +0.386390 0
-0.179491 +0.448374 0
-0.147592 +0.368689 0
-0.230749 +0.576418 0
-0.200311 +0.500384 0
-0.216507 +0.540841 0
-0.184608 +0.461156 0
-0.168412 +0.420699 0
-0.136021 +0.339786 0
-0.152217 +0.380243 0
-0.120318 +0.300558 0
-0.195686 +0.488830 0
-0.163295 +0.407917 0
-0.168920 +0.421967 0
-0.137021 +0.342283 0
-0.131396 +0.328232 0
-0.100959 +0.252198 0
-0.106583 +0.266249 0
-0.078532 +0.196175 0
-0.137021 +0.342283 0
-0.106583 +0.266249 0
-0.100959 +0.252198 0
-0.072907 +0.182125 0
-0.078532 +0.196175 0
-0.053719 +0.134192 0
-0.048094 +0.120141 0
-0.027274 +0.068131 0
-0.061829 +0.154451 0
-0.037016 +0.092467 0
-0.020821 +0.052010 0
-0.016195 +0.040457 0
-0.024813 +0.061984 0
-0.045633 +0.113994 0
-0.028051 +0.070073 0
-0.052864 +0.132057 0
-0.083302 +0.208091 0
-0.104122 +0.260101 0
-0.073685 +0.184067 0
-0.089880 +0.224524 0
-0.120318 +0.300558 0
-0.131396 +0.328232 0
-0.136021 +0.339786 0
-0.152217 +0.380243 0
-0.184608 +0.461156 0
-0.195686 +0.488830 0
-0.163295 +0.407917 0
-0.168920 +0.421967 0
-0.201311 +0.502881 0
-0.201311 +0.502881 0
-0.227585 +0.568515 0
-0.233210 +0.582565 0
-0.263647 +0.658599 0
-0.263647 +0.658599 0
-0.233210 +0.582565 0
-0.227585 +0.568515 0
-0.258022 +0.644549 0
-0.246944 +0.616875 0
-0.291698 +0.728673 0
-0.286074 +0.714622 0
-0.310887 +0.776606 0
-0.299808 +0.748932 0
-0.274995 +0.686948 0
-0.258800 +0.646491 0
-0.283613 +0.708475 0
-0.262792 +0.656464 0
-0.320629 +0.800942 0
-0.304433 +0.760485 0
-0.320629 +0.800942 0
-0.299808 +0.748932 0
-0.283613 +0.708475 0
-0.258800 +0.646491 0
-0.274995 +0.686948 0
-0.246944 +0.616875 0
-0.310887 +0.776606 0
-0.286074 +0.714622 0
-0.291698 +0.728673 0
-0.263647 +0.658599 0
-0.258022 +0.644549 0
-0.227585 +0.568515 0
-0.233210 +0.582565 0
-0.201311 +0.502881 0
-0.263647 +0.658599 0
-0.233210 +0.582565 0
-0.227585 +0.568515 0
-0.195686 +0.488830 0
-0.201311 +0.502881 0
-0.168920 +0.421967 0
-0.163295 +0.407917 0
-0.131396 +0.328232 0
-0.184608 +0.461156 0
-0.152217 +0.380243 0
-0.136021 +0.339786 0
-0.104122 +0.260101 0
-0.120318 +0.300558 0
-0.089880 +0.224524 0
-0.073685 +0.184067 0
-0.045633 +0.113994 0
-0.083302 +0.208091 0
-0.052864 +0.132057 0
-0.028051 +0.070073 0
-0.024813 +0.061984 0
-0.030438 +0.076034 0
-0.058489 +0.146107 0
-0.031899 +0.079684 0
-0.062336 +0.155718 0
-0.094727 +0.236632 0
-0.122779 +0.306706 0
-0.090388 +0.225792 0
-0.115201 +0.287775 0
-0.147592 +0.368689 0
-0.168412 +0.420699 0
-0.154678 +0.386390 0
-0.179491 +0.448374 0
-0.209928 +0.524408 0
-0.230749 +0.576418 0
-0.200311 +0.500384 0
-0.216507 +0.540841 0
-0.246944 +0.616875 0
-0.258022 +0.644549 0
-0.258800 +0.646491 0
-0.274995 +0.686948 0
-0.299808 +0.748932 0
-0.310887 +0.776606 0
-0.286074 +0.714622 0
-0.291698 +0.728673 0
-0.316511 +0.790656 0
-0.316511 +0.790656 0
-0.331707 +0.828616 0
-0.337332 +0.842667 0
-0.353527 +0.883123 0
-0.353527 +0.883123 0
-0.337332 +0.842667 0
-0.331707 +0.828616 0
-0.347903 +0.869073 0
-0.336824 +0.841399 0
-0.364606 +0.910798 0
-0.358981 +0.896747 0
-0.364606 +0.910798 0
-0.353527 +0.883123 0
-0.347903 +0.869073 0
-0.331707 +0.828616 0
-0.337332 +0.842667 0
-0.316511 +0.790656 0
-0.353527 +0.883123 0
-0.337332 +0.842667 0
-0.331707 +0.828616 0
-0.310887 +0.776606 0
-0.316511 +0.790656 0
-0.291698 +0.728673 0
-0.286074 +0.714622 0
-0.258022 +0.644549 0
-0.299808 +0.748932 0
-0.274995 +0.686948 0
-0.258800 +0.646491 0
-0.230749 +0.576418 0
-0.246944 +0.616875 0
-0.216507 +0.540841 0
-0.200311 +0.500384 0
-0.168412 +0.420699 0
-0.209928 +0.524408 0
-0.179491 +0.448374 0
-0.154678 +0.386390 0
-0.122779 +0.306706 0
-0.147592 +0.368689 0
-0.115201 +0.287775 0
-0.090388 +0.225792 0
-0.058489 +0.146107 0
-0.094727 +0.236632 0
-0.062336 +0.155718 0
-0.031899 +0.079684 0
-0.030438 +0.076034 0
-0.032391 +0.080914 0
-0.064290 +0.160598 0
-0.031899 +0.079684 0
-0.064290 +0.160598 0
-0.094727 +0.236632 0
-0.126626 +0.316317 0
-0.096189 +0.240283 0
-0.126626 +0.316317 0
-0.157064 +0.392351 0
-0.185115 +0.462424 0
-0.154678 +0.386390 0
-0.185115 +0.462424 0
-0.209928 +0.524408 0
-0.237979 +0.594481 0
-0.213167 +0.532497 0
-0.237979 +0.594481 0
-0.262792 +0.656464 0
-0.283613 +0.708475 0
-0.258800 +0.646491 0
-0.283613 +0.708475 0
-0.299808 +0.748932 0
-0.320629 +0.800942 0
-0.304433 +0.760485 0
-0.320629 +0.800942 0
-0.336824 +0.841399 0
-0.347903 +0.869073 0
-0.331707 +0.828616 0
-0.347903 +0.869073 0
-0.353527 +0.883123 0
-0.364606 +0.910798 0
-0.358981 +0.896747 0
-0.364606 +0.910798 0
-0.370230 +0.924848 0
-0.370230 +0.924848 0
-0.364606 +0.910798 0
-0.370230 +0.924848 0
-0.364606 +0.910798 0
-0.364606 +0.910798 0
-0.370230 +0.924848 0
-0.364606 +0.910798 0
-0.358981 +0.896747 0
-0.347903 +0.869073 0
-0.353527 +0.883123 0
-0.347903 +0.869073 0
-0.331707 +0.828616 0
-0.320629 +0.800942 0
-0.336824 +0.841399 0
-0.320629 +0.800942 0
-0.304433 +0.760485 0
-0.283613 +0.708475 0
-0.299808 +0.748932 0
-0.283613 +0.708475 0
-0.258800 +0.646491 0
-0.237979 +0.594481 0
-0.262792 +0.656464 0
-0.237979 +0.594481 0
-0.213167 +0.532497 0
-0.185115 +0.462424 0
-0.209928 +0.524408 0
-0.185115 +0.462424 0
-0.154678 +0.386390 0
-0.126626 +0.316317 0
-0.157064 +0.392351 0
-0.126626 +0.316317 0
-0.096189 +0.240283 0
-0.064290 +0.160598 0
-0.094727 +0.236632 0
-0.064290 +0.160598 0
-0.031899 +0.079684 0
-0.032391 +0.080914 0
-0.030438 +0.076034 0
-0.062336 +0.155718 0
-0.028051 +0.070073 0
-0.058489 +0.146107 0
-0.083302 +0.208091 0
-0.115201 +0.287775 0
-0.090388 +0.225792 0
-0.122779 +0.306706 0
-0.147592 +0.368689 0
-0.179491 +0.448374 0
-0.136021 +0.339786 0
-0.168412 +0.420699 0
-0.184608 +0.461156 0
-0.216507 +0.540841 0
-0.200311 +0.500384 0
-0.230749 +0.576418 0
-0.246944 +0.616875 0
-0.274995 +0.686948 0
-0.227585 +0.568515 0
-0.258022 +0.644549 0
-0.263647 +0.658599 0
-0.291698 +0.728673 0
-0.286074 +0.714622 0
-0.310887 +0.776606 0
-0.316511 +0.790656 0
-0.337332 +0.842667 0
-0.291698 +0.728673 0
-0.316511 +0.790656 0
-0.310887 +0.776606 0
-0.331707 +0.828616 0
-0.337332 +0.842667 0
-0.353527 +0.883123 0
-0.347903 +0.869073 0
-0.358981 +0.896747 0
-0.320629 +0.800942 0
-0.336824 +0.841399 0
-0.320629 +0.800942 0
-0.331707 +0.828616 0
-0.347903 +0.869073 0
-0.353527 +0.883123 0
-0.337332 +0.842667 0
-0.337332 +0.842667 0
-0.310887 +0.776606 0
-0.316511 +0.790656 0
-0.291698 +0.728673 0
-0.291698 +0.728673 0
-0.316511 +0.790656 0
-0.310887 +0.776606 0
-0.286074 +0.714622 0
-0.274995 +0.686948 0
-0.263647 +0.658599 0
-0.258022 +0.644549 0
-0.227585 +0.568515 0
-0.216507 +0.540841 0
-0.246944 +0.616875 0
-0.230749 +0.576418 0
-0.200311 +0.500384 0
-0.179491 +0.448374 0
-0.184608 +0.461156 0
-0.168412 +0.420699 0
-0.136021 +0.339786 0
-0.115201 +0.287775 0
-0.147592 +0.368689 0
-0.122779 +0.306706 0
-0.090388 +0.225792 0
-0.062336 +0.155718 0
-0.083302 +0.208091 0
-0.058489 +0.146107 0
-0.028051 +0.070073 0
-0.030438 +0.076034 0
-0.024813 +0.061984 0
-0.052864 +0.132057 0
-0.020821 +0.052010 0
-0.045633 +0.113994 0
-0.061829 +0.154451 0
-0.089880 +0.224524 0
-0.073685 +0.184067 0
-0.104122 +0.260101 0
-0.120318 +0.300558 0
-0.152217 +0.380243 0
-0.100959 +0.252198 0
-0.131396 +0.328232 0
-0.137021 +0.342283 0
-0.168920 +0.421967 0
-0.163295 +0.407917 0
-0.195686 +0.488830 0
-0.201311 +0.502881 0
-0.233210 +0.582565 0
-0.168920 +0.421967 0
-0.201311 +0.502881 0
-0.195686 +0.488830 0
-0.227585 +0.568515 0
-0.233210 +0.582565 0
-0.263647 +0.658599 0
-0.258022 +0.644549 0
-0.286074 +0.714622 0
-0.216507 +0.540841 0
-0.246944 +0.616875 0
-0.230749 +0.576418 0
-0.258800 +0.646491 0
-0.274995 +0.686948 0
-0.299808 +0.748932 0
-0.283613 +0.708475 0
-0.304433 +0.760485 0
-0.237979 +0.594481 0
-0.262792 +0.656464 0
-0.237979 +0.594481 0
-0.258800 +0.646491 0
-0.283613 +0.708475 0
-0.299808 +0.748932 0
-0.274995 +0.686948 0
-0.286074 +0.714622 0
-0.230749 +0.576418 0
-0.246944 +0.616875 0
-0.216507 +0.540841 0
-0.227585 +0.568515 0
-0.258022 +0.644549 0
-0.263647 +0.658599 0
-0.233210 +0.582565 0
-0.233210 +0.582565 0
-0.195686 +0.488830 0
-0.201311 +0.502881 0
-0.168920 +0.421967 0
-0.168920 +0.421967 0