# vtk DataFile Version 2.0
MyTitle
ASCII
DATASET UNSTRUCTURED_GRID
POINTS 1045 double
1.000000 -1.000000 0.000000
1.000000 1.000000 0.000000
-1.000000 1.000000 0.000000
-1.000000 -1.000000 0.000000
1.000000 -0.888889 0.000000
1.000000 -0.777778 0.000000
1.000000 -0.666667 0.000000
1.000000 -0.555556 0.000000
1.000000 -0.444444 0.000000
1.000000 -0.333333 0.000000
1.000000 -0.222222 0.000000
1.000000 -0.111111 0.000000
1.000000 -0.000000 0.000000
1.000000 0.111111 0.000000
1.000000 0.222222 0.000000
1.000000 0.333333 0.000000
1.000000 0.444444 0.000000
1.000000 0.555556 0.000000
1.000000 0.666667 0.000000
1.000000 0.777778 0.000000
1.000000 0.888889 0.000000
1.000000 -0.944444 0.000000
1.000000 -0.833333 0.000000
1.000000 -0.722222 0.000000
1.000000 -0.611111 0.000000
1.000000 -0.500000 0.000000
1.000000 -0.388889 0.000000
1.000000 -0.277778 0.000000
1.000000 -0.166667 0.000000
1.000000 -0.055556 0.000000
1.000000 0.055556 0.000000
1.000000 0.166667 0.000000
1.000000 0.277778 0.000000
1.000000 0.388889 0.000000
1.000000 0.500000 0.000000
1.000000 0.611111 0.000000
1.000000 0.722222 0.000000
1.000000 0.833333 0.000000
1.000000 0.944444 0.000000
0.888889 1.000000 0.000000
0.777778 1.000000 0.000000
0.666667 1.000000 0.000000
0.555556 1.000000 0.000000
0.444444 1.000000 0.000000
0.333333 1.000000 0.000000
0.222222 1.000000 0.000000
0.111111 1.000000 0.000000
0.000000 1.000000 0.000000
-0.111111 1.000000 0.000000
-0.222222 1.000000 0.000000
-0.333333 1.000000 0.000000
-0.444444 1.000000 0.000000
-0.555556 1.000000 0.000000
-0.666667 1.000000 0.000000
-0.777778 1.000000 0.000000
-0.888889 1.000000 0.000000
0.944444 1.000000 0.000000
0.833333 1.000000 0.000000
0.722222 1.000000 0.000000
0.611111 1.000000 0.000000
0.500000 1.000000 0.000000
0.388889 1.000000 0.000000
0.277778 1.000000 0.000000
0.166667 1.000000 0.000000
0.055556 1.000000 0.000000
-0.055556 1.000000 0.000000
-0.166667 1.000000 0.000000
-0.277778 1.000000 0.000000
-0.388889 1.000000 0.000000
-0.500000 1.000000 0.000000
-0.611111 1.000000 0.000000
-0.722222 1.000000 0.000000
-0.833333 1.000000 0.000000
-0.944444 1.000000 0.000000
-1.000000 0.888889 0.000000
-1.000000 0.777778 0.000000
-1.000000 0.666667 0.000000
-1.000000 0.555556 0.000000
-1.000000 0.444444 0.000000
-1.000000 0.333333 0.000000
-1.000000 0.222222 0.000000
-1.000000 0.111111 0.000000
-1.000000 0.000000 0.000000
-1.000000 -0.111111 0.000000
-1.000000 -0.222222 0.000000
-1.000000 -0.333333 0.000000
-1.000000 -0.444444 0.000000
-1.000000 -0.555556 0.000000
-1.000000 -0.666667 0.000000
-1.000000 -0.777778 0.000000
-1.000000 -0.888889 0.000000
-1.000000 0.944444 0.000000
-1.000000 0.833333 0.000000
-1.000000 0.722222 0.000000
-1.000000 0.611111 0.000000
-1.000000 0.500000 0.000000
-1.000000 0.388889 0.000000
-1.000000 0.277778 0.000000
-1.000000 0.166667 0.000000
-1.000000 0.055556 0.000000
-1.000000 -0.055556 0.000000
-1.000000 -0.166667 0.000000
-1.000000 -0.277778 0.000000
-1.000000 -0.388889 0.000000
-1.000000 -0.500000 0.000000
-1.000000 -0.611111 0.000000
-1.000000 -0.722222 0.000000
-1.000000 -0.833333 0.000000
-1.000000 -0.944444 0.000000
-0.888889 -1.000000 0.000000
-0.777778 -1.000000 0.000000
-0.666667 -1.000000 0.000000
-0.555556 -1.000000 0.000000
-0.444444 -1.000000 0.000000
-0.333333 -1.000000 0.000000
-0.222222 -1.000000 0.000000
-0.111111 -1.000000 0.000000
-0.000000 -1.000000 0.000000
0.111111 -1.000000 0.000000
0.222222 -1.000000 0.000000
0.333333 -1.000000 0.000000
0.444444 -1.000000 0.000000
0.555556 -1.000000 0.000000
0.666667 -1.000000 0.000000
0.777778 -1.000000 0.000000
0.888889 -1.000000 0.000000
-0.944444 -1.000000 0.000000
-0.833333 -1.000000 0.000000
-0.722222 -1.000000 0.000000
-0.611111 -1.000000 0.000000
-0.500000 -1.000000 0.000000
-0.388889 -1.000000 0.000000
-0.277778 -1.000000 0.000000
-0.166667 -1.000000 0.000000
-0.055556 -1.000000 0.000000
0.055556 -1.000000 0.000000
0.166667 -1.000000 0.000000
0.277778 -1.000000 0.000000
0.388889 -1.000000 0.000000
0.500000 -1.000000 0.000000
0.611111 -1.000000 0.000000
0.722222 -1.000000 0.000000
0.833333 -1.000000 0.000000
0.944444 -1.000000 0.000000
-0.777778 0.777778 0.000000
-0.555556 0.777778 0.000000
-0.333333 0.777778 0.000000
-0.111111 0.777778 0.000000
0.111111 0.777778 0.000000
0.333333 0.777778 0.000000
0.555556 0.777778 0.000000
0.777778 0.777778 0.000000
-0.777778 0.555556 0.000000
-0.555556 0.555556 0.000000
-0.333333 0.555556 0.000000
-0.111111 0.555556 0.000000
0.111111 0.555556 0.000000
0.333333 0.555556 0.000000
0.555556 0.555556 0.000000
0.777778 0.555556 0.000000
-0.777778 0.333333 0.000000
-0.555556 0.333333 0.000000
-0.333333 0.333333 0.000000
-0.111111 0.333333 0.000000
0.111111 0.333333 0.000000
0.333333 0.333333 0.000000
0.555556 0.333333 0.000000
0.777778 0.333333 0.000000
-0.777778 0.111111 0.000000
-0.555556 0.111111 0.000000
-0.333333 0.111111 0.000000
-0.111111 0.111111 0.000000
0.111111 0.111111 0.000000
0.333333 0.111111 0.000000
0.555556 0.111111 0.000000
0.777778 0.111111 0.000000
-0.777778 -0.111111 0.000000
-0.555556 -0.111111 0.000000
-0.333333 -0.111111 0.000000
-0.111111 -0.111111 0.000000
0.111111 -0.111111 0.000000
0.333333 -0.111111 0.000000
0.555556 -0.111111 0.000000
0.777778 -0.111111 0.000000
-0.777778 -0.333333 0.000000
-0.555556 -0.333333 0.000000
-0.333333 -0.333333 0.000000
-0.111111 -0.333333 0.000000
0.111111 -0.333333 0.000000
0.333333 -0.333333 0.000000
0.555556 -0.333333 0.000000
0.777778 -0.333333 0.000000
-0.777778 -0.555556 0.000000
-0.555556 -0.555556 0.000000
-0.333333 -0.555556 0.000000
-0.111111 -0.555556 0.000000
0.111111 -0.555556 0.000000
0.333333 -0.555556 0.000000
0.555556 -0.555556 0.000000
0.777778 -0.555556 0.000000
-0.777778 -0.777778 0.000000
-0.555556 -0.777778 0.000000
-0.333333 -0.777778 0.000000
-0.111111 -0.777778 0.000000
0.111111 -0.777778 0.000000
0.333333 -0.777778 0.000000
0.555556 -0.777778 0.000000
0.777778 -0.777778 0.000000
-0.888889 0.777778 0.000000
-0.777778 0.888889 0.000000
-0.888889 0.888889 0.000000
-0.666667 0.777778 0.000000
-0.555556 0.888889 0.000000
-0.666667 0.888889 0.000000
-0.444444 0.777778 0.000000
-0.333333 0.888889 0.000000
-0.444444 0.888889 0.000000
-0.222222 0.777778 0.000000
-0.111111 0.888889 0.000000
-0.222222 0.888889 0.000000
0.000000 0.777778 0.000000
0.111111 0.888889 0.000000
0.000000 0.888889 0.000000
0.222222 0.777778 0.000000
0.333333 0.888889 0.000000
0.222222 0.888889 0.000000
0.444444 0.777778 0.000000
0.555556 0.888889 0.000000
0.444444 0.888889 0.000000
0.666667 0.777778 0.000000
0.777778 0.888889 0.000000
0.666667 0.888889 0.000000
0.888889 0.777778 0.000000
0.888889 0.888889 0.000000
-0.888889 0.555556 0.000000
-0.777778 0.666667 0.000000
-0.888889 0.666667 0.000000
-0.666667 0.555556 0.000000
-0.555556 0.666667 0.000000
-0.666667 0.666667 0.000000
-0.444444 0.555556 0.000000
-0.333333 0.666667 0.000000
-0.444444 0.666667 0.000000
-0.222222 0.555556 0.000000
-0.111111 0.666667 0.000000
-0.222222 0.666667 0.000000
0.000000 0.555556 0.000000
0.111111 0.666667 0.000000
0.000000 0.666667 0.000000
0.222222 0.555556 0.000000
0.333333 0.666667 0.000000
0.222222 0.666667 0.000000
0.444444 0.555556 0.000000
0.555556 0.666667 0.000000
0.444444 0.666667 0.000000
0.666667 0.555556 0.000000
0.777778 0.666667 0.000000
0.666667 0.666667 0.000000
0.888889 0.555556 0.000000
0.888889 0.666667 0.000000
-0.888889 0.333333 0.000000
-0.777778 0.444444 0.000000
-0.888889 0.444444 0.000000
-0.666667 0.333333 0.000000
-0.555556 0.444444 0.000000
-0.666667 0.444444 0.000000
-0.444444 0.333333 0.000000
-0.333333 0.444444 0.000000
-0.444444 0.444444 0.000000
-0.222222 0.333333 0.000000
-0.111111 0.444444 0.000000
-0.222222 0.444444 0.000000
0.000000 0.333333 0.000000
0.111111 0.444444 0.000000
0.000000 0.444444 0.000000
0.222222 0.333333 0.000000
0.333333 0.444444 0.000000
0.222222 0.444444 0.000000
0.444444 0.333333 0.000000
0.555556 0.444444 0.000000
0.444444 0.444444 0.000000
0.666667 0.333333 0.000000
0.777778 0.444444 0.000000
0.666667 0.444444 0.000000
0.888889 0.333333 0.000000
0.888889 0.444444 0.000000
-0.888889 0.111111 0.000000
-0.777778 0.222222 0.000000
-0.888889 0.222222 0.000000
-0.666667 0.111111 0.000000
-0.555556 0.222222 0.000000
-0.666667 0.222222 0.000000
-0.444444 0.111111 0.000000
-0.333333 0.222222 0.000000
-0.444444 0.222222 0.000000
-0.222222 0.111111 0.000000
-0.111111 0.222222 0.000000
-0.222222 0.222222 0.000000
0.000000 0.111111 0.000000
0.111111 0.222222 0.000000
0.000000 0.222222 0.000000
0.222222 0.111111 0.000000
0.333333 0.222222 0.000000
0.222222 0.222222 0.000000
0.444444 0.111111 0.000000
0.555556 0.222222 0.000000
0.444444 0.222222 0.000000
0.666667 0.111111 0.000000
0.777778 0.222222 0.000000
0.666667 0.222222 0.000000
0.888889 0.111111 0.000000
0.888889 0.222222 0.000000
-0.888889 -0.111111 0.000000
-0.777778 0.000000 0.000000
-0.888889 0.000000 0.000000
-0.666667 -0.111111 0.000000
-0.555556 0.000000 0.000000
-0.666667 0.000000 0.000000
-0.444444 -0.111111 0.000000
-0.333333 0.000000 0.000000
-0.444444 0.000000 0.000000
-0.222222 -0.111111 0.000000
-0.111111 0.000000 0.000000
-0.222222 0.000000 0.000000
-0.000000 -0.111111 0.000000
0.111111 -0.000000 0.000000
-0.000000 -0.000000 0.000000
0.222222 -0.111111 0.000000
0.333333 -0.000000 0.000000
0.222222 -0.000000 0.000000
0.444444 -0.111111 0.000000
0.555556 -0.000000 0.000000
0.444444 -0.000000 0.000000
0.666667 -0.111111 0.000000
0.777778 -0.000000 0.000000
0.666667 -0.000000 0.000000
0.888889 -0.111111 0.000000
0.888889 -0.000000 0.000000
-0.888889 -0.333333 0.000000
-0.777778 -0.222222 0.000000
-0.888889 -0.222222 0.000000
-0.666667 -0.333333 0.000000
-0.555556 -0.222222 0.000000
-0.666667 -0.222222 0.000000
-0.444444 -0.333333 0.000000
-0.333333 -0.222222 0.000000
-0.444444 -0.222222 0.000000
-0.222222 -0.333333 0.000000
-0.111111 -0.222222 0.000000
-0.222222 -0.222222 0.000000
-0.000000 -0.333333 0.000000
0.111111 -0.222222 0.000000
-0.000000 -0.222222 0.000000
0.222222 -0.333333 0.000000
0.333333 -0.222222 0.000000
[...]
POINT_DATA 1045
VECTORS sol double
+0.000000 +0.000000 0
+0.000000 +0.000000 0
+0.000000 +0.000000 0
+0.000000 +0.000000 0
+0.000000 +0.000000 0
+0.000000 +0.000000 0
+0.000000 +0.000000 0
+0.000000 +0.000000 0
+0.000000 +0.000000 0
+0.000000 +0.000000 0
+0.000000 +0.000000 0
+0.000000 +0.000000 0
+0.000000 +0.000000 0
+0.000000 +0.000000 0
+0.000000 +0.000000 0
+0.000000 +0.000000 0
+0.000000 +0.000000 0
+0.000000 +0.000000 0
+0.000000 +0.000000 0
+0.000000 +0.000000 0
+0.000000 +0.000000 0
+0.000000 +0.000000 0
+0.000000 +0.000000 0
+0.000000 +0.000000 0
+0.000000 +0.000000 0
+0.000000 +0.000000 0
+0.000000 +0.000000 0
+0.000000 +0.000000 0
+0.000000 +0.000000 0
+0.000000 +0.000000 0
+0.000000 +0.000000 0
+0.000000 +0.000000 0
+0.000000 +0.000000 0
+0.000000 +0.000000 0
+0.000000 +0.000000 0
+0.000000 +0.000000 0
+0.000000 +0.000000 0
+0.000000 +0.000000 0
+0.000000 +0.000000 0
+0.000000 +0.000000 0
+0.000000 +0.000000 0
+0.000000 +0.000000 0
+0.000000 +0.000000 0
+0.000000 +0.000000 0
+0.000000 +0.000000 0
+0.000000 +0.000000 0
+0.000000 +0.000000 0
+0.000000 +0.000000 0
+0.000000 +0.000000 0
+0.000000 +0.000000 0
+0.000000 +0.000000 0
+0.000000 +0.000000 0
+0.000000 +0.000000 0
+0.000000 +0.000000 0
+0.000000 +0.000000 0
+0.000000 +0.000000 0
+0.000000 +0.000000 0
+0.000000 +0.000000 0
+0.000000 +0.000000 0
+0.000000 +0.000000 0
+0.000000 +0.000000 0
+0.000000 +0.000000 0
+0.000000 +0.000000 0
+0.000000 +0.000000 0
+0.000000 +0.000000 0
+0.000000 +0.000000 0
+0.000000 +0.000000 0
+0.000000 +0.000000 0
+0.000000 +0.000000 0
+0.000000 +0.000000 0
+0.000000 +0.000000 0
+0.000000 +0.000000 0
+0.000000 +0.000000 0
+0.000000 +0.000000 0
+0.000000 +0.000000 0
+0.000000 +0.000000 0
+0.000000 +0.000000 0
+0.000000 +0.000000 0
+0.000000 +0.000000 0
+0.000000 +0.000000 0
+0.000000 +0.000000 0
+0.000000 +0.000000 0
+0.000000 +0.000000 0
+0.000000 +0.000000 0
+0.000000 +0.000000 0
+0.000000 +0.000000 0
+0.000000 +0.000000 0
+0.000000 +0.000000 0
+0.000000 +0.000000 0
+0.000000 +0.000000 0
+0.000000 +0.000000 0
+0.000000 +0.000000 0
+0.000000 +0.000000 0
+0.000000 +0.000000 0
+0.000000 +0.000000 0
+0.000000 +0.000000 0
+0.000000 +0.000000 0
+0.000000 +0.000000 0
+0.000000 +0.000000 0
+0.000000 +0.000000 0
+0.000000 +0.000000 0
+0.000000 +0.000000 0
+0.000000 +0.000000 0
+0.000000 +0.000000 0
+0.000000 +0.000000 0
+0.000000 +0.000000 0
+0.000000 +0.000000 0
+0.000000 +0.000000 0
+0.000000 +0.000000 0
+0.000000 +0.000000 0
+0.000000 +0.000000 0
+0.000000 +0.000000 0
+0.000000 +0.000000 0
+0.000000 +0.000000 0
+0.000000 +0.000000 0
+0.000000 +0.000000 0
+0.000000 +0.000000 0
+0.000000 +0.000000 0
+0.000000 +0.000000 0
+0.000000 +0.000000 0
+0.000000 +0.000000 0
+0.000000 +0.000000 0
+0.000000 +0.000000 0
+0.000000 +0.000000 0
+0.000000 +0.000000 0
+0.000000 +0.000000 0
+0.000000 +0.000000 0
+0.000000 +0.000000 0
+0.000000 +0.000000 0
+0.000000 +0.000000 0
+0.000000 +0.000000 0
+0.000000 +0.000000 0
+0.000000 +0.000000 0
+0.000000 +0.000000 0
+0.000000 +0.000000 0
+0.000000 +0.000000 0
+0.000000 +0.000000 0
+0.000000 +0.000000 0
+0.000000 +0.000000 0
+0.000000 +0.000000 0
+0.000000 +0.000000 0
+0.000000 +0.000000 0
+0.000000 +0.000000 0
+0.000000 +0.000000 0
-0.786851 +0.017656 0
-0.998780 +0.024822 0
-0.536623 +0.018145 0
+0.176626 +0.002978 0
+0.600484 -0.011354 0
+0.536623 -0.018145 0
+0.221671 -0.016446 0
+0.009742 -0.009280 0
-0.993596 +0.019884 0
-1.205525 +0.027050 0
-0.536623 +0.018145 0
+0.383371 +0.000750 0
+0.807229 -0.013582 0
+0.536623 -0.018145 0
+0.014925 -0.014218 0
-0.197004 -0.007052 0
-0.523498 +0.005642 0
-0.523498 +0.005642 0
+0.000000 +0.000000 0
+0.523498 -0.005642 0
+0.523498 -0.005642 0
-0.000000 +0.000000 0
-0.523498 +0.005642 0
-0.523498 +0.005642 0
+0.191551 -0.011240 0
+0.403480 -0.018406 0
+0.536623 -0.018145 0
+0.418675 -0.009394 0
-0.005183 +0.004938 0
-0.536623 +0.018145 0
-0.816971 +0.022862 0
-0.605042 +0.015696 0
+0.605042 -0.015696 0
+0.816971 -0.022862 0
+0.536623 -0.018145 0
+0.005183 -0.004938 0
-0.418675 +0.009394 0
-0.536623 +0.018145 0
-0.403480 +0.018406 0
-0.191551 +0.011240 0
+0.523498 -0.005642 0
+0.523498 -0.005642 0
+0.000000 -0.000000 0
-0.523498 +0.005642 0
-0.523498 +0.005642 0
+0.000000 -0.000000 0
+0.523498 -0.005642 0
+0.523498 -0.005642 0
+0.197004 +0.007052 0
-0.014925 +0.014218 0
-0.536623 +0.018145 0
-0.807229 +0.013582 0
-0.383371 -0.000750 0
+0.536623 -0.018145 0
+1.205525 -0.027050 0
+0.993596 -0.019884 0
-0.009742 +0.009280 0
-0.221671 +0.016446 0
-0.536623 +0.018145 0
-0.600484 +0.011354 0
-0.176626 -0.002978 0
+0.536623 -0.018145 0
+0.998780 -0.024822 0
+0.786851 -0.017656 0
-0.436261 +0.009584 0
-0.436702 +0.010004 0
-0.241722 +0.005424 0
-0.985287 +0.022981 0
-0.559059 +0.014141 0
-0.548549 +0.013049 0
-0.834557 +0.023052 0
-0.309820 +0.010476 0
-0.471678 +0.013200 0
-0.173964 +0.011050 0
+0.084388 +0.001909 0
-0.110592 +0.006489 0
+0.448664 -0.004836 0
+0.329103 -0.006366 0
+0.238729 -0.002573 0
+0.622628 -0.015886 0
+0.309820 -0.010476 0
+0.349321 -0.009062 0
+0.385893 -0.018216 0
+0.145568 -0.009685 0
+0.232949 -0.010627 0
+0.087959 -0.013310 0
+0.023211 -0.005547 0
+0.071090 -0.007903 0
-0.012403 -0.004748 0
+0.002993 -0.002851 0
-0.555626 +0.010870 0
-0.983411 +0.021194 0
-0.546956 +0.011532 0
-1.224017 +0.025554 0
-1.228126 +0.029468 0
-1.224123 +0.027467 0
-0.953922 +0.024338 0
-0.619639 +0.020952 0
-1.006869 +0.027084 0
-0.054600 +0.009764 0
+0.278784 +0.002633 0
-0.157671 +0.012294 0
+0.687393 -0.007409 0
+0.768213 -0.013917 0
+0.604484 -0.006515 0
+0.741993 -0.017172 0
+0.619639 -0.020952 0
+0.762155 -0.018809 0
+0.266529 -0.016930 0
+0.181129 -0.018184 0
+0.402386 -0.020569 0
-0.150770 -0.010737 0
-0.063585 -0.009909 0
+0.015155 -0.014437 0
-0.131768 -0.003462 0
-0.057527 -0.005017 0
-0.302242 +0.003258 0
-0.825257 +0.014192 0
-0.466054 +0.007842 0
-0.604484 +0.006515 0
-0.947614 +0.018329 0
-0.997213 +0.017885 0
-0.302242 +0.003258 0
-0.309820 +0.010476 0
-0.696010 +0.015617 0
+0.302242 -0.003258 0
+0.472943 -0.002279 0
+0.113740 +0.004071 0
+0.604484 -0.006515 0
+0.717657 -0.010553 0
+0.687393 -0.007409 0
+0.302242 -0.003258 0
+0.309820 -0.010476 0
+0.573653 -0.011480 0
-0.302242 +0.003258 0
-0.242986 -0.005497 0
+0.008617 -0.008209 0
-0.604484 +0.006515 0
-0.365344 -0.001360 0
-0.377574 -0.003068 0
-0.302242 +0.003258 0
-0.221339 -0.000433 0
+0.092564 -0.005880 0
-0.158598 -0.003588 0
-0.101975 -0.001720 0
+0.297894 -0.015572 0
-0.036241 -0.007725 0
-0.138845 -0.005641 0
+0.490861 -0.019347 0
+0.309820 -0.010476 0
+0.127982 -0.009495 0
+0.517661 -0.014754 0
+0.510912 -0.008325 0
+0.454289 -0.010193 0
+0.238729 -0.002573 0
+0.266197 -0.000050 0
+0.448664 -0.004836 0
-0.278932 +0.012181 0
-0.309820 +0.010476 0
-0.005624 +0.005358 0
-0.729590 +0.021920 0
-0.740868 +0.016101 0
-0.576646 +0.014331 0
-0.775352 +0.020718 0
-0.618511 +0.011963 0
-0.758484 +0.015312 0
-0.331294 +0.008453 0
-0.346689 +0.006555 0
+0.331294 -0.008453 0
+0.459913 -0.015551 0
+0.244715 -0.008275 0
+0.775352 -0.020718 0
+0.704628 -0.023826 0
+0.619639 -0.020952 0
+0.729590 -0.021920 0
+0.619639 -0.020952 0
+0.704628 -0.023826 0
+0.278932 -0.012181 0
+0.244715 -0.008275 0
+0.459913 -0.015551 0
-0.238729 +0.002573 0
-0.244715 +0.008275 0
-0.000000 -0.000000 0
-0.517661 +0.014754 0
-0.619639 +0.020952 0
-0.459913 +0.015551 0
-0.490861 +0.019347 0
-0.704628 +0.023826 0
-0.704628 +0.023826 0
-0.297894 +0.015572 0
-0.459913 +0.015551 0
-0.619639 +0.020952 0
-0.092564 +0.005880 0
-0.244715 +0.008275 0
+0.302242 -0.003258 0
+0.618511 -0.011963 0
+0.346689 -0.006555 0
+0.604484 -0.006515 0
+0.740868 -0.016101 0
+0.758484 -0.015312 0
+0.302242 -0.003258 0
+0.309820 -0.010476 0
+0.576646 -0.014331 0
-0.302242 +0.003258 0
-0.266197 +0.000050 0
+0.005624 -0.005358 0
-0.604484 +0.006515 0
-0.510912 +0.008325 0
-0.448664 +0.004836 0
-0.302242 +0.003258 0
-0.309820 +0.010476 0
-0.454289 +0.010193 0
+0.302242 -0.003258 0
+0.036241 +0.007725 0
-0.127982 +0.009495 0
+0.604484 -0.006515 0
+0.158598 +0.003588 0
+0.138845 +0.005641 0
+0.302242 -0.003258 0
+0.101975 +0.001720 0
+0.131768 +0.003462 0
+0.365344 +0.001360 0
+0.221339 +0.000433 0
+0.150770 +0.010737 0
+0.242986 +0.005497 0
+0.377574 +0.003068 0
-0.266529 +0.016930 0
-0.309820 +0.010476 0
-0.008617 +0.008209 0
-0.741993 +0.017172 0
-0.717657 +0.010553 0
-0.573653 +0.011480 0
-0.687393 +0.007409 0
-0.472943 +0.002279 0
-0.687393 +0.007409 0
+0.054600 -0.009764 0
+0.309820 -0.010476 0
-0.113740 -0.004071 0
+0.953922 -0.024338 0
+0.947614 -0.018329 0
+0.696010 -0.015617 0
+1.224017 -0.025554 0
+0.825257 -0.014192 0
+0.997213 -0.017885 0
+0.555626 -0.010870 0
+0.466054 -0.007842 0
+0.012403 +0.004748 0
+0.063585 +0.009909 0
+0.057527 +0.005017 0
-0.087959 +0.013310 0
-0.181129 +0.018184 0
-0.015155 +0.014437 0
-0.385893 +0.018216 0
-0.619639 +0.020952 0
-0.402386 +0.020569 0
-0.622628 +0.015886 0
-0.768213 +0.013917 0
-0.762155 +0.018809 0
-0.448664 +0.004836 0
-0.278784 -0.002633 0
-0.604484 +0.006515 0
+0.173964 -0.011050 0
+0.619639 -0.020952 0
+0.157671 -0.012294 0
+0.834557 -0.023052 0
+1.228126 -0.029468 0
+1.006869 -0.027084 0
+0.985287 -0.022981 0
+0.983411 -0.021194 0
+1.224123 -0.027467 0
+0.436261 -0.009584 0
+0.546956 -0.011532 0
-0.023211 +0.005547 0
-0.002993 +0.002851 0
-0.145568 +0.009685 0
-0.071090 +0.007903 0
-0.309820 +0.010476 0
-0.232949 +0.010627 0
-0.329103 +0.006366 0
-0.349321 +0.009062 0
-0.084388 -0.001909 0
-0.238729 +0.002573 0
+0.309820 -0.010476 0
+0.110592 -0.006489 0
+0.559059 -0.014141 0
+0.471678 -0.013200 0
+0.436702 -0.010004 0
+0.548549 -0.013049 0
+0.241722 -0.005424 0
-0.123951 +0.002767 0
-0.123981 +0.002796 0
-0.223796 +0.004892 0
-0.347654 +0.007734 0
-0.627280 +0.013900 0
-0.627656 +0.014259 0
-0.347796 +0.007870 0
-0.224076 +0.005158 0
-0.504813 +0.011756 0
-0.281673 +0.006731 0
-0.908348 +0.020728 0
-0.787409 +0.018583 0
-1.015984 +0.024368 0
-0.800751 +0.020112 0
-0.566957 +0.013857 0
-0.287432 +0.007300 0
-0.526732 +0.013921 0
-0.243053 +0.006822 0
-0.937206 +0.024380 0
-0.672964 +0.018734 0
-0.698630 +0.020947 0
-0.438290 +0.014820 0
-0.398096 +0.012037 0
-0.160425 +0.005425 0
-0.212338 +0.008604 0
-0.058448 +0.003373 0
-0.358674 +0.014804 0
-0.150752 +0.009119 0
+0.007429 +0.007059 0
+0.129251 +0.002594 0
-0.010075 +0.004231 0
+0.041647 +0.001011 0
+0.168524 -0.000385 0
+0.121248 -0.001307 0
+0.325878 -0.001033 0
+0.349118 -0.003763 0
+0.541150 -0.008312 0
+0.475440 -0.009112 0
+0.292812 -0.004587 0
+0.168360 -0.003274 0
+0.347796 -0.007870 0
+0.179696 -0.004680 0
+0.627280 -0.013900 0
+0.499870 -0.012881 0
+0.590994 -0.017308 0
+0.438290 -0.014820 0
+0.335953 -0.009936 0
+0.160425 -0.005425 0
+0.274482 -0.010705 0
+0.121805 -0.005515 0
+0.466310 -0.018443 0
+0.323846 -0.014972 0
+0.302497 -0.017539 0
+0.196060 -0.013594 0
+0.189011 -0.010281 0
+0.077426 -0.005037 0
+0.105621 -0.008885 0
+0.039178 -0.004118 0
+0.148956 -0.015023 0
+0.089172 -0.011057 0
+0.041320 -0.011384 0
+0.022965 -0.007741 0
+0.043477 -0.006784 0
+0.014069 -0.002895 0
+0.010075 -0.004231 0
+0.002733 -0.001489 0
-0.007429 -0.007059 0
-0.001465 -0.003972 0
-0.008524 -0.002388 0
+0.000336 -0.001435 0
-0.280789 +0.005889 0
-0.503891 +0.010878 0
-0.285603 +0.005558 0
-0.564515 +0.011531 0
-0.796141 +0.015720 0
-1.012607 +0.021150 0
-0.785442 +0.016709 0
-0.907603 +0.020019 0
-1.132363 +0.024835 0
-1.133596 +0.026010 0
-1.139016 +0.023214 0
-1.254844 +0.027316 0
-1.246652 +0.026854 0
-1.249058 +0.029146 0
-1.256650 +0.029037 0
-1.144054 +0.028014 0
-1.143313 +0.028810 0
-0.948274 +0.025904 0
-1.106066 +0.026200 0
-1.008898 +0.026557 0
-0.760437 +0.021614 0
-0.598716 +0.020245 0
-0.829080 +0.024429 0
-0.598716 +0.020245 0
-0.391789 +0.016853 0
-0.176943 +0.012144 0
-0.296867 +0.014138 0
-0.116319 +0.011490 0
+0.176289 +0.005239 0
+0.331772 +0.001871 0
+0.069699 +0.007493 0
+0.226769 +0.003003 0
+0.459784 -0.002092 0
+0.534880 -0.005765 0
+0.556546 -0.003519 0
+0.656128 -0.007072 0
+0.771818 -0.010798 0
+0.804675 -0.014119 0
+0.708359 -0.010498 0
+0.699671 -0.012988 0
+0.785442 -0.016709 0
+0.711823 -0.017909 0
+0.796141 -0.015720 0
+0.772447 -0.018562 0
+0.652801 -0.017974 0
+0.598716 -0.020245 0
+0.704792 -0.020226 0
+0.598716 -0.020245 0
+0.516077 -0.021056 0
+0.413394 -0.020139 0
+0.404503 -0.017777 0
+0.352770 -0.019486 0
+0.133636 -0.015719 0
+0.112611 -0.016897 0
+0.288173 -0.019594 0
+0.217614 -0.018029 0
+0.088506 -0.016447 0
+0.063835 -0.014480 0
-0.081712 -0.012537 0
-0.057413 -0.013173 0
-0.189348 -0.008897 0
-0.123841 -0.008902 0
-0.035781 -0.012245 0
-0.018837 -0.010034 0
-0.069699 -0.007493 0
-0.030989 -0.005113 0
-0.176289 -0.005239 0
-0.091613 -0.004459 0
-0.070331 -0.001721 0
-0.032214 -0.002516 0
-0.240111 +0.004019 0
-0.522213 +0.009616 0
-0.156502 +0.001687 0
-0.391421 +0.005678 0
-0.427570 +0.004608 0
-0.687296 +0.010150 0
-0.665151 +0.011291 0
-0.930002 +0.017517 0
-0.938327 +0.016428 0
-1.136527 +0.022346 0
-0.584072 +0.006295 0
-0.816553 +0.012496 0
-0.584072 +0.006295 0
-0.750653 +0.012293 0
-1.000471 +0.018530 0
-1.103096 +0.023370 0
-0.844086 +0.017341 0
-0.847524 +0.020616 0
-0.427570 +0.004608 0
-0.510493 +0.009704 0
-0.156502 +0.001687 0
-0.160425 +0.005425 0
-0.514256 +0.013289 0
-0.438290 +0.014820 0
-0.096178 +0.007352 0
+0.023808 +0.007237 0
+0.156502 -0.001687 0
+0.208992 +0.000490 0
+0.427570 -0.004608 0
+0.504867 -0.003982 0
+0.307279 +0.000810 0
+0.431597 -0.000664 0
+0.602038 -0.005057 0
+0.698237 -0.007525 0
+0.584072 -0.006295 0
+0.656128 -0.007072 0
+0.584072 -0.006295 0
+0.631580 -0.008267 0
+0.726326 -0.009260 0
+0.777785 -0.012370 0
+0.665151 -0.011291 0
+0.674429 -0.014763 0
+0.427570 -0.004608 0
+0.447136 -0.007562 0
+0.156502 -0.001687 0
+0.160425 -0.005425 0
+0.452112 -0.011188 0
+0.438290 -0.014820 0
+0.158322 -0.009453 0
+0.149287 -0.013090 0
-0.156502 +0.001687 0
-0.145635 -0.002633 0
-0.427570 +0.004608 0
-0.385795 -0.000044 0
-0.128344 -0.006861 0
-0.106286 -0.010336 0
-0.327893 -0.004213 0
-0.259947 -0.007295 0
-0.584072 +0.006295 0
-0.495703 +0.001647 0
-0.584072 +0.006295 0
-0.449152 +0.002098 0
-0.390037 -0.002111 0
-0.279380 -0.004483 0
-0.307279 -0.000810 0
-0.176024 -0.002090 0
-0.427570 +0.004608 0
-0.264707 +0.001393 0
-0.156502 +0.001687 0
-0.115823 -0.000183 0
-0.054016 -0.000849 0
-0.204083 +0.000740 0
+0.045829 -0.002973 0
-0.001465 -0.003972 0
+0.141065 -0.008660 0
+0.022965 -0.007741 0
-0.138419 -0.002630 0
-0.344148 +0.000966 0
-0.159369 -0.004598 0
-0.374455 +0.000340 0
+0.244166 -0.013570 0
+0.089172 -0.011057 0
+0.351802 -0.017209 0
+0.196060 -0.013594 0
-0.097225 -0.006699 0
-0.280791 -0.001176 0
+0.040517 -0.008681 0
-0.085011 -0.003286 0
+0.450991 -0.019140 0
+0.323846 -0.014972 0
+0.520663 -0.019029 0
+0.438290 -0.014820 0
+0.220129 -0.010119 0
+0.160425 -0.005425 0
+0.390305 -0.010522 0
+0.386512 -0.006909 0
+0.536641 -0.016722 0
+0.499870 -0.012881 0
+0.478786 -0.012300 0
+0.475440 -0.009112 0
+0.496290 -0.009471 0
+0.526577 -0.007135 0
+0.495658 -0.006774 0
+0.534880 -0.005765 0
+0.338304 -0.006126 0
+0.349118 -0.003763 0
+0.123032 +0.001153 0
+0.129251 +0.002594 0
+0.371370 -0.002571 0
+0.399863 -0.002850 0
+0.138419 +0.002630 0
+0.148368 +0.001144 0
-0.141065 +0.008660 0
-0.150752 +0.009119 0
-0.413026 +0.015390 0
-0.438290 +0.014820 0
-0.157986 +0.008018 0
-0.160425 +0.005425 0
-0.452449 +0.012623 0
-0.449869 +0.009051 0
-0.644277 +0.020362 0
-0.672964 +0.018734 0
-0.788712 +0.022779 0
-0.800751 +0.020112 0
-0.675226 +0.015521 0
-0.645649 +0.011161 0
-0.769803 +0.016044 0
-0.695306 +0.011189 0
-0.813138 +0.022182 0
-0.787409 +0.018583 0
-0.705502 +0.018542 0
-0.627656 +0.014259 0
-0.707659 +0.013942 0
-0.582292 +0.009019 0
-0.496290 +0.009471 0
-0.330797 +0.005025 0
-0.478786 +0.012300 0
-0.347654 +0.007734 0
-0.169443 +0.004306 0
-0.178303 +0.003353 0
+0.124287 -0.004203 0
+0.175827 -0.007342 0
+0.169443 -0.004306 0
+0.297075 -0.008649 0
+0.478786 -0.012300 0
+0.549386 -0.016158 0
+0.357871 -0.012101 0
+0.339379 -0.013895 0
+0.548291 -0.018540 0
+0.477468 -0.018938 0
+0.705502 -0.018542 0
+0.719963 -0.021552 0
+0.813138 -0.022182 0
+0.785838 -0.024153 0
+0.672578 -0.022742 0
+0.575831 -0.021890 0
+0.715743 -0.024202 0
+0.620210 -0.022368 0
+0.788712 -0.022779 0
+0.741458 -0.023675 0
+0.644277 -0.020362 0
+0.598716 -0.020245 0
+0.672578 -0.022742 0
+0.598716 -0.020245 0
+0.548291 -0.018540 0
+0.505007 -0.015680 0
+0.413026 -0.015390 0
+0.383759 -0.014373 0
+0.141065 -0.008660 0
+0.131448 -0.006864 0
+0.357871 -0.012101 0
+0.341455 -0.009127 0
+0.124287 -0.004203 0
+0.121248 -0.001307 0
-0.123032 -0.001153 0
-0.121248 +0.001307 0
-0.338304 +0.006126 0
-0.341455 +0.009127 0
-0.124287 +0.004203 0
-0.131448 +0.006864 0
-0.357871 +0.012101 0
-0.383759 +0.014373 0
-0.478786 +0.012300 0
-0.505007 +0.015680 0
-0.536641 +0.016722 0
-0.598716 +0.020245 0
-0.548291 +0.018540 0
-0.598716 +0.020245 0
-0.672578 +0.022742 0
-0.741458 +0.023675 0
-0.520663 +0.019029 0
-0.620210 +0.022368 0
-0.450991 +0.019140 0
-0.575831 +0.021890 0
-0.715743 +0.024202 0
-0.785838 +0.024153 0
-0.672578 +0.022742 0
-0.719963 +0.021552 0
-0.351802 +0.017209 0
-0.477468 +0.018938 0
-0.244166 +0.013570 0
-0.339379 +0.013895 0
-0.548291 +0.018540 0
-0.549386 +0.016158 0
-0.357871 +0.012101 0
-0.297075 +0.008649 0
-0.141065 +0.008660 0
-0.175827 +0.007342 0
-0.045829 +0.002973 0
-0.124287 +0.004203 0
+0.178303 -0.003353 0
+0.347654 -0.007734 0
+0.156502 -0.001687 0
+0.330797 -0.005025 0
+0.427570 -0.004608 0
+0.582292 -0.009019 0
+0.496290 -0.009471 0
+0.627656 -0.014259 0
+0.707659 -0.013942 0
+0.787409 -0.018583 0
+0.584072 -0.006295 0
+0.695306 -0.011189 0
+0.584072 -0.006295 0
+0.645649 -0.011161 0
+0.769803 -0.016044 0
+0.800751 -0.020112 0
+0.675226 -0.015521 0
+0.672964 -0.018734 0
+0.427570 -0.004608 0
+0.449869 -0.009051 0
+0.156502 -0.001687 0
+0.160425 -0.005425 0
+0.452449 -0.012623 0
+0.438290 -0.014820 0
+0.157986 -0.008018 0
+0.150752 -0.009119 0
-0.156502 +0.001687 0
-0.148368 -0.001144 0
-0.427570 +0.004608 0
-0.399863 +0.002850 0
-0.138419 -0.002630 0
-0.129251 -0.002594 0
-0.371370 +0.002571 0
-0.349118 +0.003763 0
-0.584072 +0.006295 0
-0.534880 +0.005765 0
-0.584072 +0.006295 0
-0.526577 +0.007135 0
-0.495658 +0.006774 0
-0.475440 +0.009112 0
-0.496290 +0.009471 0
-0.499870 +0.012881 0
-0.427570 +0.004608 0
-0.386512 +0.006909 0
-0.156502 +0.001687 0
-0.160425 +0.005425 0
-0.390305 +0.010522 0
-0.438290 +0.014820 0
-0.220129 +0.010119 0
-0.323846 +0.014972 0
+0.156502 -0.001687 0
+0.085011 +0.003286 0
+0.427570 -0.004608 0
+0.280791 +0.001176 0
-0.040517 +0.008681 0
-0.196060 +0.013594 0
+0.097225 +0.006699 0
-0.089172 +0.011057 0
+0.584072 -0.006295 0
+0.374455 -0.000340 0
+0.584072 -0.006295 0
+0.344148 -0.000966 0
+0.159369 +0.004598 0
-0.022965 +0.007741 0
+0.138419 +0.002630 0
+0.001465 +0.003972 0
+0.427570 -0.004608 0
+0.204083 -0.000740 0
+0.156502 -0.001687 0
+0.054016 +0.000849 0
+0.115823 +0.000183 0
+0.264707 -0.001393 0
+0.070331 +0.001721 0
+0.176024 +0.002090 0
+0.176289 +0.005239 0
+0.279380 +0.004483 0
+0.307279 +0.000810 0
+0.449152 -0.002098 0
+0.390037 +0.002111 0
+0.495703 -0.001647 0
+0.189348 +0.008897 0
+0.259947 +0.007295 0
+0.081712 +0.012537 0
+0.106286 +0.010336 0
+0.327893 +0.004213 0
+0.385795 +0.000044 0
+0.128344 +0.006861 0
+0.145635 +0.002633 0
-0.133636 +0.015719 0
-0.149287 +0.013090 0
-0.404503 +0.017777 0
-0.438290 +0.014820 0
-0.158322 +0.009453 0
-0.160425 +0.005425 0
-0.452112 +0.011188 0
-0.447136 +0.007562 0
-0.652801 +0.017974 0
-0.674429 +0.014763 0
-0.796141 +0.015720 0
-0.777785 +0.012370 0
-0.665151 +0.011291 0
-0.631580 +0.008267 0
-0.726326 +0.009260 0
-0.656128 +0.007072 0
-0.771818 +0.010798 0
-0.698237 +0.007525 0
-0.556546 +0.003519 0
-0.431597 +0.000664 0
-0.602038 +0.005057 0
-0.504867 +0.003982 0
-0.307279 -0.000810 0
-0.208992 -0.000490 0
-0.176289 -0.005239 0
-0.023808 -0.007237 0
+0.296867 -0.014138 0
+0.438290 -0.014820 0
+0.096178 -0.007352 0
+0.160425 -0.005425 0
+0.514256 -0.013289 0
+0.510493 -0.009704 0
+0.760437 -0.021614 0
+0.847524 -0.020616 0
+1.106066 -0.026200 0
+1.103096 -0.023370 0