# vtk DataFile Version 2.0
MyTitle
ASCII
DATASET UNSTRUCTURED_GRID
POINTS 1045 double
1.000000 -1.000000 0.000000
1.000000 1.000000 0.000000
-1.000000 1.000000 0.000000
-1.000000 -1.000000 0.000000
1.000000 -0.888889 0.000000
1.000000 -0.777778 0.000000
1.000000 -0.666667 0.000000
1.000000 -0.555556 0.000000
1.000000 -0.444444 0.000000
1.000000 -0.333333 0.000000
1.000000 -0.222222 0.000000
1.000000 -0.111111 0.000000
1.000000 -0.000000 0.000000
1.000000 0.111111 0.000000
1.000000 0.222222 0.000000
1.000000 0.333333 0.000000
1.000000 0.444444 0.000000
1.000000 0.555556 0.000000
1.000000 0.666667 0.000000
1.000000 0.777778 0.000000
1.000000 0.888889 0.000000
1.000000 -0.944444 0.000000
1.000000 -0.833333 0.000000
1.000000 -0.722222 0.000000
1.000000 -0.611111 0.000000
1.000000 -0.500000 0.000000
1.000000 -0.388889 0.000000
1.000000 -0.277778 0.000000
1.000000 -0.166667 0.000000
1.000000 -0.055556 0.000000
1.000000 0.055556 0.000000
1.000000 0.166667 0.000000
1.000000 0.277778 0.000000
1.000000 0.388889 0.000000
1.000000 0.500000 0.000000
1.000000 0.611111 0.000000
1.000000 0.722222 0.000000
1.000000 0.833333 0.000000
1.000000 0.944444 0.000000
0.888889 1.000000 0.000000
0.777778 1.000000 0.000000
0.666667 1.000000 0.000000
0.555556 1.000000 0.000000
0.444444 1.000000 0.000000
0.333333 1.000000 0.000000
0.222222 1.000000 0.000000
0.111111 1.000000 0.000000
0.000000 1.000000 0.000000
-0.111111 1.000000 0.000000
-0.222222 1.000000 0.000000
-0.333333 1.000000 0.000000
-0.444444 1.000000 0.000000
-0.555556 1.000000 0.000000
-0.666667 1.000000 0.000000
-0.777778 1.000000 0.000000
-0.888889 1.000000 0.000000
0.944444 1.000000 0.000000
0.833333 1.000000 0.000000
0.722222 1.000000 0.000000
0.611111 1.000000 0.000000
0.500000 1.000000 0.000000
0.388889 1.000000 0.000000
0.277778 1.000000 0.000000
0.166667 1.000000 0.000000
0.055556 1.000000 0.000000
-0.055556 1.000000 0.000000
-0.166667 1.000000 0.000000
-0.277778 1.000000 0.000000
-0.388889 1.000000 0.000000
-0.500000 1.000000 0.000000
-0.611111 1.000000 0.000000
-0.722222 1.000000 0.000000
-0.833333 1.000000 0.000000
-0.944444 1.000000 0.000000
-1.000000 0.888889 0.000000
-1.000000 0.777778 0.000000
-1.000000 0.666667 0.000000
-1.000000 0.555556 0.000000
-1.000000 0.444444 0.000000
-1.000000 0.333333 0.000000
-1.000000 0.222222 0.000000
-1.000000 0.111111 0.000000
-1.000000 0.000000 0.000000
-1.000000 -0.111111 0.000000
-1.000000 -0.222222 0.000000
-1.000000 -0.333333 0.000000
-1.000000 -0.444444 0.000000
-1.000000 -0.555556 0.000000
-1.000000 -0.666667 0.000000
-1.000000 -0.777778 0.000000
-1.000000 -0.888889 0.000000
-1.000000 0.944444 0.000000
-1.000000 0.833333 0.000000
-1.000000 0.722222 0.000000
-1.000000 0.611111 0.000000
-1.000000 0.500000 0.000000
-1.000000 0.388889 0.000000
-1.000000 0.277778 0.000000
-1.000000 0.166667 0.000000
-1.000000 0.055556 0.000000
-1.000000 -0.055556 0.000000
-1.000000 -0.166667 0.000000
-1.000000 -0.277778 0.000000
-1.000000 -0.388889 0.000000
-1.000000 -0.500000 0.000000
-1.000000 -0.611111 0.000000
-1.000000 -0.722222 0.000000
-1.000000 -0.833333 0.000000
-1.000000 -0.944444 0.000000
-0.888889 -1.000000 0.000000
-0.777778 -1.000000 0.000000
-0.666667 -1.000000 0.000000
-0.555556 -1.000000 0.000000
-0.444444 -1.000000 0.000000
-0.333333 -1.000000 0.000000
-0.222222 -1.000000 0.000000
-0.111111 -1.000000 0.000000
-0.000000 -1.000000 0.000000
0.111111 -1.000000 0.000000
0.222222 -1.000000 0.000000
0.333333 -1.000000 0.000000
0.444444 -1.000000 0.000000
0.555556 -1.000000 0.000000
0.666667 -1.000000 0.000000
0.777778 -1.000000 0.000000
0.888889 -1.000000 0.000000
-0.944444 -1.000000 0.000000
-0.833333 -1.000000 0.000000
-0.722222 -1.000000 0.000000
-0.611111 -1.000000 0.000000
-0.500000 -1.000000 0.000000
-0.388889 -1.000000 0.000000
-0.277778 -1.000000 0.000000
-0.166667 -1.000000 0.000000
-0.055556 -1.000000 0.000000
0.055556 -1.000000 0.000000
0.166667 -1.000000 0.000000
0.277778 -1.000000 0.000000
0.388889 -1.000000 0.000000
0.500000 -1.000000 0.000000
0.611111 -1.000000 0.000000
0.722222 -1.000000 0.000000
0.833333 -1.000000 0.000000
0.944444 -1.000000 0.000000
-0.777778 0.777778 0.000000
-0.555556 0.777778 0.000000
-0.333333 0.777778 0.000000
-0.111111 0.777778 0.000000
0.111111 0.777778 0.000000
0.333333 0.777778 0.000000
0.555556 0.777778 0.000000
0.777778 0.777778 0.000000
-0.777778 0.555556 0.000000
-0.555556 0.555556 0.000000
-0.333333 0.555556 0.000000
-0.111111 0.555556 0.000000
0.111111 0.555556 0.000000
0.333333 0.555556 0.000000
0.555556 0.555556 0.000000
0.777778 0.555556 0.000000
-0.777778 0.333333 0.000000
-0.555556 0.333333 0.000000
-0.333333 0.333333 0.000000
-0.111111 0.333333 0.000000
0.111111 0.333333 0.000000
0.333333 0.333333 0.000000
0.555556 0.333333 0.000000
0.777778 0.333333 0.000000
-0.777778 0.111111 0.000000
-0.555556 0.111111 0.000000
-0.333333 0.111111 0.000000
-0.111111 0.111111 0.000000
0.111111 0.111111 0.000000
0.333333 0.111111 0.000000
0.555556 0.111111 0.000000
0.777778 0.111111 0.000000
-0.777778 -0.111111 0.000000
-0.555556 -0.111111 0.000000
-0.333333 -0.111111 0.000000
-0.111111 -0.111111 0.000000
0.111111 -0.111111 0.000000
0.333333 -0.111111 0.000000
0.555556 -0.111111 0.000000
0.777778 -0.111111 0.000000
-0.777778 -0.333333 0.000000
-0.555556 -0.333333 0.000000
-0.333333 -0.333333 0.000000
-0.111111 -0.333333 0.000000
0.111111 -0.333333 0.000000
0.333333 -0.333333 0.000000
0.555556 -0.333333 0.000000
0.777778 -0.333333 0.000000
-0.777778 -0.555556 0.000000
-0.555556 -0.555556 0.000000
-0.333333 -0.555556 0.000000
-0.111111 -0.555556 0.000000
0.111111 -0.555556 0.000000
0.333333 -0.555556 0.000000
0.555556 -0.555556 0.000000
0.777778 -0.555556 0.000000
-0.777778 -0.777778 0.000000
-0.555556 -0.777778 0.000000
-0.333333 -0.777778 0.000000
-0.111111 -0.777778 0.000000
0.111111 -0.777778 0.000000
0.333333 -0.777778 0.000000
0.555556 -0.777778 0.000000
0.777778 -0.777778 0.000000
-0.888889 0.777778 0.000000
-0.777778 0.888889 0.000000
-0.888889 0.888889 0.000000
-0.666667 0.777778 0.000000
-0.555556 0.888889 0.000000
-0.666667 0.888889 0.000000
-0.444444 0.777778 0.000000
-0.333333 0.888889 0.000000
-0.444444 0.888889 0.000000
-0.222222 0.777778 0.000000
-0.111111 0.888889 0.000000
-0.222222 0.888889 0.000000
0.000000 0.777778 0.000000
0.111111 0.888889 0.000000
0.000000 0.888889 0.000000
0.222222 0.777778 0.000000
0.333333 0.888889 0.000000
0.222222 0.888889 0.000000
0.444444 0.777778 0.000000
0.555556 0.888889 0.000000
0.444444 0.888889 0.000000
0.666667 0.777778 0.000000
0.777778 0.888889 0.000000
0.666667 0.888889 0.000000
0.888889 0.777778 0.000000
0.888889 0.888889 0.000000
-0.888889 0.555556 0.000000
-0.777778 0.666667 0.000000
-0.888889 0.666667 0.000000
-0.666667 0.555556 0.000000
-0.555556 0.666667 0.000000
-0.666667 0.666667 0.000000
-0.444444 0.555556 0.000000
-0.333333 0.666667 0.000000
-0.444444 0.666667 0.000000
-0.222222 0.555556 0.000000
-0.111111 0.666667 0.000000
-0.222222 0.666667 0.000000
0.000000 0.555556 0.000000
0.111111 0.666667 0.000000
0.000000 0.666667 0.000000
0.222222 0.555556 0.000000
0.333333 0.666667 0.000000
0.222222 0.666667 0.000000
0.444444 0.555556 0.000000
0.555556 0.666667 0.000000
0.444444 0.666667 0.000000
0.666667 0.555556 0.000000
0.777778 0.666667 0.000000
0.666667 0.666667 0.000000
0.888889 0.555556 0.000000
0.888889 0.666667 0.000000
-0.888889 0.333333 0.000000
-0.777778 0.444444 0.000000
-0.888889 0.444444 0.000000
-0.666667 0.333333 0.000000
-0.555556 0.444444 0.000000
-0.666667 0.444444 0.000000
-0.444444 0.333333 0.000000
-0.333333 0.444444 0.000000
-0.444444 0.444444 0.000000
-0.222222 0.333333 0.000000
-0.111111 0.444444 0.000000
-0.222222 0.444444 0.000000
0.000000 0.333333 0.000000
0.111111 0.444444 0.000000
0.000000 0.444444 0.000000
0.222222 0.333333 0.000000
0.333333 0.444444 0.000000
0.222222 0.444444 0.000000
0.444444 0.333333 0.000000
0.555556 0.444444 0.000000
0.444444 0.444444 0.000000
0.666667 0.333333 0.000000
0.777778 0.444444 0.000000
0.666667 0.444444 0.000000
0.888889 0.333333 0.000000
0.888889 0.444444 0.000000
-0.888889 0.111111 0.000000
-0.777778 0.222222 0.000000
-0.888889 0.222222 0.000000
-0.666667 0.111111 0.000000
-0.555556 0.222222 0.000000
-0.666667 0.222222 0.000000
-0.444444 0.111111 0.000000
-0.333333 0.222222 0.000000
-0.444444 0.222222 0.000000
-0.222222 0.111111 0.000000
-0.111111 0.222222 0.000000
-0.222222 0.222222 0.000000
0.000000 0.111111 0.000000
0.111111 0.222222 0.000000
0.000000 0.222222 0.000000
0.222222 0.111111 0.000000
0.333333 0.222222 0.000000
0.222222 0.222222 0.000000
0.444444 0.111111 0.000000
0.555556 0.222222 0.000000
0.444444 0.222222 0.000000
0.666667 0.111111 0.000000
0.777778 0.222222 0.000000
0.666667 0.222222 0.000000
0.888889 0.111111 0.000000
0.888889 0.222222 0.000000
-0.888889 -0.111111 0.000000
-0.777778 0.000000 0.000000
-0.888889 0.000000 0.000000
-0.666667 -0.111111 0.000000
-0.555556 0.000000 0.000000
-0.666667 0.000000 0.000000
-0.444444 -0.111111 0.000000
-0.333333 0.000000 0.000000
-0.444444 0.000000 0.000000
-0.222222 -0.111111 0.000000
-0.111111 0.000000 0.000000
-0.222222 0.000000 0.000000
-0.000000 -0.111111 0.000000
0.111111 -0.000000 0.000000
-0.000000 -0.000000 0.000000
0.222222 -0.111111 0.000000
0.333333 -0.000000 0.000000
0.222222 -0.000000 0.000000
0.444444 -0.111111 0.000000
0.555556 -0.000000 0.000000
0.444444 -0.000000 0.000000
0.666667 -0.111111 0.000000
0.777778 -0.000000 0.000000
0.666667 -0.000000 0.000000
0.888889 -0.111111 0.000000
0.888889 -0.000000 0.000000
-0.888889 -0.333333 0.000000
-0.777778 -0.222222 0.000000
-0.888889 -0.222222 0.000000
-0.666667 -0.333333 0.000000
-0.555556 -0.222222 0.000000
-0.666667 -0.222222 0.000000
-0.444444 -0.333333 0.000000
-0.333333 -0.222222 0.000000
-0.444444 -0.222222 0.000000
-0.222222 -0.333333 0.000000
-0.111111 -0.222222 0.000000
-0.222222 -0.222222 0.000000
-0.000000 -0.333333 0.000000
0.111111 -0.222222 0.000000
-0.000000 -0.222222 0.000000
0.222222 -0.333333 0.000000
0.333333 -0.222222 0.000000
[...]
POINT_DATA 1045
VECTORS sol double
+0.000000 +0.000000 0
+0.000000 +0.000000 0
+0.000000 +0.000000 0
+0.000000 +0.000000 0
+0.000000 +0.000000 0
+0.000000 +0.000000 0
+0.000000 +0.000000 0
+0.000000 +0.000000 0
+0.000000 +0.000000 0
+0.000000 +0.000000 0
+0.000000 +0.000000 0
+0.000000 +0.000000 0
+0.000000 +0.000000 0
+0.000000 +0.000000 0
+0.000000 +0.000000 0
+0.000000 +0.000000 0
+0.000000 +0.000000 0
+0.000000 +0.000000 0
+0.000000 +0.000000 0
+0.000000 +0.000000 0
+0.000000 +0.000000 0
+0.000000 +0.000000 0
+0.000000 +0.000000 0
+0.000000 +0.000000 0
+0.000000 +0.000000 0
+0.000000 +0.000000 0
+0.000000 +0.000000 0
+0.000000 +0.000000 0
+0.000000 +0.000000 0
+0.000000 +0.000000 0
+0.000000 +0.000000 0
+0.000000 +0.000000 0
+0.000000 +0.000000 0
+0.000000 +0.000000 0
+0.000000 +0.000000 0
+0.000000 +0.000000 0
+0.000000 +0.000000 0
+0.000000 +0.000000 0
+0.000000 +0.000000 0
+0.000000 +0.000000 0
+0.000000 +0.000000 0
+0.000000 +0.000000 0
+0.000000 +0.000000 0
+0.000000 +0.000000 0
+0.000000 +0.000000 0
+0.000000 +0.000000 0
+0.000000 +0.000000 0
+0.000000 +0.000000 0
+0.000000 +0.000000 0
+0.000000 +0.000000 0
+0.000000 +0.000000 0
+0.000000 +0.000000 0
+0.000000 +0.000000 0
+0.000000 +0.000000 0
+0.000000 +0.000000 0
+0.000000 +0.000000 0
+0.000000 +0.000000 0
+0.000000 +0.000000 0
+0.000000 +0.000000 0
+0.000000 +0.000000 0
+0.000000 +0.000000 0
+0.000000 +0.000000 0
+0.000000 +0.000000 0
+0.000000 +0.000000 0
+0.000000 +0.000000 0
+0.000000 +0.000000 0
+0.000000 +0.000000 0
+0.000000 +0.000000 0
+0.000000 +0.000000 0
+0.000000 +0.000000 0
+0.000000 +0.000000 0
+0.000000 +0.000000 0
+0.000000 +0.000000 0
+0.000000 +0.000000 0
+0.000000 +0.000000 0
+0.000000 +0.000000 0
+0.000000 +0.000000 0
+0.000000 +0.000000 0
+0.000000 +0.000000 0
+0.000000 +0.000000 0
+0.000000 +0.000000 0
+0.000000 +0.000000 0
+0.000000 +0.000000 0
+0.000000 +0.000000 0
+0.000000 +0.000000 0
+0.000000 +0.000000 0
+0.000000 +0.000000 0
+0.000000 +0.000000 0
+0.000000 +0.000000 0
+0.000000 +0.000000 0
+0.000000 +0.000000 0
+0.000000 +0.000000 0
+0.000000 +0.000000 0
+0.000000 +0.000000 0
+0.000000 +0.000000 0
+0.000000 +0.000000 0
+0.000000 +0.000000 0
+0.000000 +0.000000 0
+0.000000 +0.000000 0
+0.000000 +0.000000 0
+0.000000 +0.000000 0
+0.000000 +0.000000 0
+0.000000 +0.000000 0
+0.000000 +0.000000 0
+0.000000 +0.000000 0
+0.000000 +0.000000 0
+0.000000 +0.000000 0
+0.000000 +0.000000 0
+0.000000 +0.000000 0
+0.000000 +0.000000 0
+0.000000 +0.000000 0
+0.000000 +0.000000 0
+0.000000 +0.000000 0
+0.000000 +0.000000 0
+0.000000 +0.000000 0
+0.000000 +0.000000 0
+0.000000 +0.000000 0
+0.000000 +0.000000 0
+0.000000 +0.000000 0
+0.000000 +0.000000 0
+0.000000 +0.000000 0
+0.000000 +0.000000 0
+0.000000 +0.000000 0
+0.000000 +0.000000 0
+0.000000 +0.000000 0
+0.000000 +0.000000 0
+0.000000 +0.000000 0
+0.000000 +0.000000 0
+0.000000 +0.000000 0
+0.000000 +0.000000 0
+0.000000 +0.000000 0
+0.000000 +0.000000 0
+0.000000 +0.000000 0
+0.000000 +0.000000 0
+0.000000 +0.000000 0
+0.000000 +0.000000 0
+0.000000 +0.000000 0
+0.000000 +0.000000 0
+0.000000 +0.000000 0
+0.000000 +0.000000 0
+0.000000 +0.000000 0
+0.000000 +0.000000 0
+0.000000 +0.000000 0
+0.000000 +0.000000 0
-0.003999 -0.115257 0
+0.036481 -0.221869 0
+0.139968 -0.309775 0
+0.285849 -0.367401 0
+0.420662 -0.383511 0
+0.481328 -0.350566 0
+0.424661 -0.268254 0
+0.249368 -0.145532 0
-0.050123 -0.171326 0
-0.011515 -0.331868 0
+0.155167 -0.467520 0
+0.414536 -0.560094 0
+0.667902 -0.590370 0
+0.796713 -0.544181 0
+0.718026 -0.419044 0
+0.426050 -0.228226 0
-0.155481 -0.137349 0
-0.180806 -0.271444 0
-0.013642 -0.393195 0
+0.305260 -0.485455 0
+0.646620 -0.526246 0
+0.850711 -0.496480 0
+0.802101 -0.388896 0
+0.486066 -0.214011 0
-0.299491 -0.025793 0
-0.436176 -0.063614 0
-0.326161 -0.116954 0
-0.006127 -0.176583 0
+0.382053 -0.222969 0
+0.656746 -0.234406 0
+0.681545 -0.197175 0
+0.430049 -0.112969 0
-0.430049 +0.112969 0
-0.681545 +0.197175 0
-0.656746 +0.234406 0
-0.382053 +0.222969 0
+0.006127 +0.176583 0
+0.326161 +0.116954 0
+0.436176 +0.063614 0
+0.299491 +0.025793 0
-0.486066 +0.214011 0
-0.802101 +0.388896 0
-0.850711 +0.496480 0
-0.646620 +0.526246 0
-0.305260 +0.485455 0
+0.013642 +0.393195 0
+0.180806 +0.271444 0
+0.155481 +0.137349 0
-0.426050 +0.228226 0
-0.718026 +0.419044 0
-0.796713 +0.544181 0
-0.667902 +0.590370 0
-0.414536 +0.560094 0
-0.155167 +0.467520 0
+0.011515 +0.331868 0
+0.050123 +0.171326 0
-0.249368 +0.145532 0
-0.424661 +0.268254 0
-0.481328 +0.350566 0
-0.420662 +0.383511 0
-0.285849 +0.367401 0
-0.139968 +0.309775 0
-0.036481 +0.221869 0
+0.003999 +0.115257 0
-0.005118 -0.058148 0
+0.000960 -0.061696 0
-0.001080 -0.031136 0
+0.008673 -0.170229 0
+0.024142 -0.118619 0
+0.008775 -0.091074 0
+0.080694 -0.268860 0
+0.078636 -0.165325 0
+0.047667 -0.143623 0
+0.210389 -0.343118 0
+0.153740 -0.195686 0
+0.115034 -0.182938 0
+0.358705 -0.381248 0
+0.222187 -0.203865 0
+0.190863 -0.202858 0
+0.463756 -0.373394 0
+0.251949 -0.186035 0
+0.243671 -0.198310 0
+0.468874 -0.315246 0
+0.221227 -0.142170 0
+0.244752 -0.167173 0
+0.350033 -0.211019 0
+0.129598 -0.077067 0
+0.182088 -0.111784 0
+0.129695 -0.074258 0
+0.067366 -0.039315 0
-0.031252 -0.086291 0
-0.019906 -0.153550 0
-0.014621 -0.077420 0
-0.045989 -0.253722 0
+0.026907 -0.296265 0
-0.007876 -0.227011 0
+0.056224 -0.403863 0
+0.169017 -0.415021 0
+0.086475 -0.359576 0
+0.278338 -0.520430 0
+0.377398 -0.494075 0
+0.268938 -0.460547 0
+0.549568 -0.584106 0
+0.574482 -0.517626 0
+0.483282 -0.513654 0
+0.754512 -0.577330 0
+0.668052 -0.474653 0
+0.639335 -0.504807 0
+0.785764 -0.491039 0
+0.594389 -0.364076 0
+0.653956 -0.427387 0
+0.595558 -0.330384 0
+0.350491 -0.197810 0
+0.491158 -0.286643 0
+0.222115 -0.116567 0
+0.182463 -0.100970 0
-0.086759 -0.068800 0
-0.095777 -0.165870 0
-0.055544 -0.083388 0
-0.190536 -0.205184 0
-0.081460 -0.323510 0
-0.107499 -0.246372 0
-0.121238 -0.334756 0
+0.093657 -0.460170 0
-0.013722 -0.395505 0
+0.133363 -0.444346 0
+0.390244 -0.557191 0
+0.232684 -0.514974 0
+0.483282 -0.513654 0
+0.692194 -0.593273 0
+0.549568 -0.584106 0
+0.774910 -0.521008 0
+0.858223 -0.551531 0
+0.800166 -0.582785 0
+0.861669 -0.452208 0
+0.787972 -0.427402 0
+0.855710 -0.499397 0
+0.673818 -0.308470 0
+0.471704 -0.233681 0
+0.657067 -0.337734 0
+0.254601 -0.109590 0
+0.246407 -0.119470 0
-0.160947 -0.012033 0
-0.225375 -0.088803 0
-0.122910 -0.044073 0
-0.396022 -0.042703 0
-0.302687 -0.181340 0
-0.289587 -0.134588 0
-0.412651 -0.088617 0
-0.158292 -0.274135 0
-0.258474 -0.228331 0
-0.185418 -0.147036 0
+0.168057 -0.353326 0
-0.010987 -0.316665 0
+0.190863 -0.202858 0
+0.538454 -0.397586 0
+0.358705 -0.381248 0
+0.544123 -0.234212 0
+0.779587 -0.386206 0
+0.685132 -0.399847 0
+0.705070 -0.222179 0
+0.763829 -0.308783 0
+0.808042 -0.355774 0
+0.586885 -0.160155 0
+0.470744 -0.171986 0
+0.648292 -0.246660 0
+0.227233 -0.058419 0
+0.247487 -0.088333 0
-0.227233 +0.058419 0
-0.370397 +0.044260 0
-0.197084 +0.023550 0
-0.586885 +0.160155 0
-0.567482 +0.067811 0
-0.499035 +0.059632 0
-0.705070 +0.222179 0
-0.499035 +0.059632 0
-0.567482 +0.067811 0
-0.544123 +0.234212 0
-0.197084 +0.023550 0
-0.370397 +0.044260 0
-0.190863 +0.202858 0
+0.197084 -0.023550 0
-0.000000 -0.000000 0
+0.185418 +0.147036 0
+0.499035 -0.059632 0
+0.370397 -0.044260 0
+0.412651 +0.088617 0
+0.567482 -0.067811 0
+0.567482 -0.067811 0
+0.396022 +0.042703 0
+0.370397 -0.044260 0
+0.499035 -0.059632 0
+0.160947 +0.012033 0
+0.197084 -0.023550 0
-0.254601 +0.109590 0
-0.470744 +0.171986 0
-0.247487 +0.088333 0
-0.673818 +0.308470 0
-0.763829 +0.308783 0
-0.648292 +0.246660 0
-0.861669 +0.452208 0
-0.779587 +0.386206 0
-0.808042 +0.355774 0
-0.774910 +0.521008 0
-0.538454 +0.397586 0
-0.685132 +0.399847 0
-0.483282 +0.513654 0
-0.168057 +0.353326 0
-0.358705 +0.381248 0
-0.133363 +0.444346 0
+0.158292 +0.274135 0
+0.010987 +0.316665 0
+0.121238 +0.334756 0
+0.302687 +0.181340 0
+0.258474 +0.228331 0
+0.190536 +0.205184 0
+0.225375 +0.088803 0
+0.289587 +0.134588 0
+0.086759 +0.068800 0
+0.122910 +0.044073 0
-0.222115 +0.116567 0
-0.471704 +0.233681 0
-0.246407 +0.119470 0
-0.595558 +0.330384 0
-0.787972 +0.427402 0
-0.657067 +0.337734 0
-0.785764 +0.491039 0
-0.858223 +0.551531 0
-0.855710 +0.499397 0
-0.754512 +0.577330 0
-0.692194 +0.593273 0
-0.800166 +0.582785 0
-0.549568 +0.584106 0
-0.390244 +0.557191 0
-0.549568 +0.584106 0
-0.278338 +0.520430 0
-0.093657 +0.460170 0
-0.232684 +0.514974 0
-0.056224 +0.403863 0
+0.081460 +0.323510 0
+0.013722 +0.395505 0
+0.045989 +0.253722 0
+0.095777 +0.165870 0
+0.107499 +0.246372 0
+0.031252 +0.086291 0
+0.055544 +0.083388 0
-0.129695 +0.074258 0
-0.350491 +0.197810 0
-0.182463 +0.100970 0
-0.350033 +0.211019 0
-0.594389 +0.364076 0
-0.491158 +0.286643 0
-0.468874 +0.315246 0
-0.668052 +0.474653 0
-0.653956 +0.427387 0
-0.463756 +0.373394 0
-0.574482 +0.517626 0
-0.639335 +0.504807 0
-0.358705 +0.381248 0
-0.377398 +0.494075 0
-0.483282 +0.513654 0
-0.210389 +0.343118 0
-0.169017 +0.415021 0
-0.268938 +0.460547 0
-0.080694 +0.268860 0
-0.026907 +0.296265 0
-0.086475 +0.359576 0
-0.008673 +0.170229 0
+0.019906 +0.153550 0
+0.007876 +0.227011 0
+0.005118 +0.058148 0
+0.014621 +0.077420 0
-0.129598 +0.077067 0
-0.067366 +0.039315 0
-0.221227 +0.142170 0
-0.182088 +0.111784 0
-0.251949 +0.186035 0
-0.244752 +0.167173 0
-0.222187 +0.203865 0
-0.243671 +0.198310 0
-0.153740 +0.195686 0
-0.190863 +0.202858 0
-0.078636 +0.165325 0
-0.115034 +0.182938 0
-0.024142 +0.118619 0
-0.047667 +0.143623 0
-0.000960 +0.061696 0
-0.008775 +0.091074 0
+0.001080 +0.031136 0
-0.000741 -0.015605 0
-0.000350 -0.015833 0
-0.002960 -0.029140 0
-0.002558 -0.045403 0
-0.005702 -0.086902 0
-0.000435 -0.089976 0
-0.000632 -0.046527 0
+0.000861 -0.031369 0
+0.004011 -0.076575 0
+0.004958 -0.046301 0
+0.000621 -0.143087 0
+0.010351 -0.132849 0
+0.020548 -0.196552 0
+0.032478 -0.173079 0
+0.015448 -0.105123 0
+0.012829 -0.060295 0
+0.034900 -0.131490 0
+0.024774 -0.072990 0
+0.056562 -0.246042 0
+0.066870 -0.209633 0
+0.108641 -0.290181 0
+0.112484 -0.241401 0
+0.062321 -0.154942 0
+0.040428 -0.084000 0
+0.096333 -0.174699 0
+0.058779 -0.092928 0
+0.174130 -0.327500 0
+0.166335 -0.267226 0
+0.247951 -0.356496 0
+0.223782 -0.285967 0
+0.134334 -0.189974 0
+0.078257 -0.099379 0
+0.172768 -0.200017 0
+0.096907 -0.102997 0
+0.323129 -0.375722 0
+0.279032 -0.296568 0
+0.391578 -0.383901 0
+0.325804 -0.298158 0
+0.207520 -0.204170 0
+0.112612 -0.103485 0
+0.234399 -0.201932 0
+0.123346 -0.100643 0
+0.445041 -0.380047 0
+0.358074 -0.290138 0
+0.476090 -0.363582 0
+0.370813 -0.272270 0
+0.249642 -0.193018 0
+0.127419 -0.094395 0
+0.250383 -0.177414 0
+0.123696 -0.084810 0
+0.479050 -0.334443 0
+0.360631 -0.244735 0
+0.450743 -0.293145 0
+0.326239 -0.208181 0
+0.235031 -0.155405 0
+0.111752 -0.072115 0
+0.203509 -0.127595 0
+0.091949 -0.056696 0
+0.390957 -0.240814 0
+0.268681 -0.163718 0
+0.302581 -0.179170 0
+0.191304 -0.112888 0
+0.157320 -0.094894 0
+0.065428 -0.039085 0
+0.099434 -0.058484 0
+0.034005 -0.019938 0
+0.191389 -0.110454 0
+0.099464 -0.057594 0
+0.065489 -0.037319 0
+0.034012 -0.019757 0
-0.007910 -0.038791 0
-0.009060 -0.068947 0
-0.016421 -0.043224 0
-0.021985 -0.083277 0
-0.042960 -0.129053 0
-0.033101 -0.165242 0
-0.018976 -0.115734 0
-0.010328 -0.136697 0
-0.016466 -0.190713 0
+0.002841 -0.201981 0
-0.051483 -0.212957 0
-0.024041 -0.244478 0
-0.032839 -0.293450 0
+0.011577 -0.319371 0
+0.006459 -0.262278 0
+0.034955 -0.263403 0
+0.053618 -0.328792 0
+0.087648 -0.319407 0
+0.018209 -0.368779 0
+0.076214 -0.388070 0
+0.102127 -0.436897 0
+0.167905 -0.448487 0
+0.125146 -0.388424 0
+0.159318 -0.368292 0
+0.217301 -0.439172 0
+0.245177 -0.408260 0
+0.214347 -0.495493 0
+0.280323 -0.498364 0
+0.345658 -0.542093 0
+0.403394 -0.535389 0
+0.322769 -0.478956 0
+0.337712 -0.437512 0
+0.431429 -0.505740 0
+0.427502 -0.454368 0
+0.483177 -0.574219 0
+0.524408 -0.557365 0
+0.611819 -0.589591 0
+0.629489 -0.562406 0
+0.531494 -0.517698 0
+0.504301 -0.457418 0
+0.610896 -0.513385 0
+0.558263 -0.445672 0
+0.716067 -0.586355 0
+0.705242 -0.549139 0
+0.781847 -0.563306 0
+0.740397 -0.516897 0
+0.658737 -0.491921 0
+0.581137 -0.418697 0
+0.666647 -0.453130 0
+0.567322 -0.376725 0
+0.798268 -0.520082 0
+0.727227 -0.465862 0
+0.759027 -0.457303 0
+0.662590 -0.397163 0
+0.629872 -0.397652 0
+0.514630 -0.320721 0
+0.547961 -0.326984 0
+0.424660 -0.252386 0
+0.663302 -0.376635 0
+0.548450 -0.312887 0
+0.516016 -0.280770 0
+0.391817 -0.216018 0
+0.424970 -0.243462 0
+0.302757 -0.174109 0
+0.269151 -0.150163 0
+0.157529 -0.088853 0
+0.327449 -0.173314 0
+0.204110 -0.110294 0
+0.112221 -0.058596 0
+0.092155 -0.050748 0
-0.028755 -0.041750 0
-0.042458 -0.086343 0
-0.044537 -0.034414 0
-0.070386 -0.077493 0
-0.124438 -0.103132 0
-0.124065 -0.154373 0
-0.078474 -0.124809 0
-0.071051 -0.171566 0
-0.105893 -0.206455 0
-0.073853 -0.254400 0
-0.178043 -0.171406 0
-0.146597 -0.229833 0
-0.191744 -0.238594 0
-0.127788 -0.302718 0
-0.099583 -0.285474 0
-0.042569 -0.333309 0
-0.052818 -0.360292 0
+0.026216 -0.406417 0
-0.157305 -0.303588 0
-0.063151 -0.371417 0
-0.073057 -0.364739 0
+0.045350 -0.433843 0
+0.035383 -0.428922 0
+0.130413 -0.471502 0
+0.159937 -0.488992 0
+0.262488 -0.526067 0
+0.055724 -0.419864 0
+0.189359 -0.487494 0
+0.217307 -0.466354 0
+0.354993 -0.529605 0
+0.310144 -0.537850 0
+0.410220 -0.567471 0
+0.470843 -0.572745 0
+0.558064 -0.593135 0
+0.394802 -0.501364 0
+0.524408 -0.557365 0
+0.568121 -0.522074 0
+0.677890 -0.568189 0
+0.624152 -0.591065 0
+0.688950 -0.600777 0
+0.751580 -0.590599 0
+0.786329 -0.588663 0
+0.716358 -0.525988 0
+0.796206 -0.560009 0
+0.820314 -0.511229 0
+0.862952 -0.531542 0
+0.836257 -0.569808 0
+0.836182 -0.555838 0
+0.865011 -0.528058 0
+0.828787 -0.502319 0
+0.864851 -0.476814 0
+0.866592 -0.482516 0
+0.840796 -0.422856 0
+0.801955 -0.413817 0
+0.830054 -0.465790 0
+0.760002 -0.429211 0
+0.730046 -0.384610 0
+0.631916 -0.338735 0
+0.746164 -0.350669 0
+0.671005 -0.327532 0
+0.586547 -0.262770 0
+0.482781 -0.226887 0
+0.570426 -0.287271 0
+0.452789 -0.234162 0
+0.362962 -0.177558 0
+0.236272 -0.119650 0
+0.374613 -0.162765 0
+0.252511 -0.116078 0
+0.128782 -0.055125 0
+0.124554 -0.060070 0
-0.062766 -0.021993 0
-0.104391 -0.057555 0
-0.081910 -0.005905 0
-0.141923 -0.028750 0
-0.234349 -0.018599 0
-0.262355 -0.058678 0
-0.177908 -0.066325 0
-0.189493 -0.115288 0
-0.263213 -0.111560 0
-0.238546 -0.173137 0
-0.354064 -0.033787 0
-0.342533 -0.090682 0
-0.423796 -0.052635 0
-0.368808 -0.125127 0
-0.303092 -0.157879 0
-0.239540 -0.230602 0
-0.287849 -0.204887 0
-0.186847 -0.286606 0
-0.432534 -0.075635 0
-0.334415 -0.161681 0
-0.376923 -0.102454 0
-0.240400 -0.199233 0
-0.215000 -0.251508 0
-0.082069 -0.339447 0
-0.089705 -0.295973 0
+0.066013 -0.386851 0
-0.261743 -0.131911 0
-0.095586 -0.235928 0
-0.099383 -0.162047 0
+0.084417 -0.269313 0
+0.075745 -0.335918 0
+0.242381 -0.426120 0
+0.263323 -0.368576 0
+0.427502 -0.454368 0
+0.091599 -0.190318 0
+0.279032 -0.296568 0
+0.288689 -0.213869 0
+0.465169 -0.314811 0
+0.451385 -0.391048 0
+0.599633 -0.468810 0
+0.617247 -0.400625 0
+0.737427 -0.467081 0
+0.468116 -0.229860 0
+0.619994 -0.321436 0
+0.607717 -0.235806 0
+0.723698 -0.314437 0
+0.739924 -0.395109 0
+0.822524 -0.447541 0
+0.802690 -0.373116 0
+0.841818 -0.409526 0
+0.689627 -0.229901 0
+0.761917 -0.292687 0
+0.702465 -0.211261 0
+0.727524 -0.256133 0
+0.795154 -0.334300 0
+0.789125 -0.353522 0
+0.714598 -0.279487 0
+0.666047 -0.281231 0
+0.642754 -0.180082 0
+0.621565 -0.205886 0
+0.515395 -0.137683 0
+0.453224 -0.144186 0
+0.566415 -0.210697 0
+0.481921 -0.195518 0
+0.363594 -0.131031 0
+0.252861 -0.100245 0
+0.333151 -0.086412 0
+0.238829 -0.074247 0
+0.115181 -0.029457 0
+0.125295 -0.044465 0
-0.100065 +0.011957 0
-0.179514 +0.005577 0
-0.115181 +0.029457 0
-0.213169 +0.041347 0
-0.333151 +0.086412 0
-0.402146 +0.079321 0
-0.288127 +0.034430 0
-0.335858 +0.008867 0
-0.441436 +0.052749 0
-0.448702 +0.007909 0
-0.515395 +0.137683 0
-0.545608 +0.110906 0
-0.642754 +0.180082 0
-0.627634 +0.133761 0
-0.541502 +0.064706 0
-0.503053 +0.001350 0
-0.576254 +0.068859 0
-0.491109 -0.011345 0
-0.702465 +0.211261 0
-0.639579 +0.146456 0
-0.689627 +0.229901 0
-0.581079 +0.148605 0
-0.541502 +0.064706 0
-0.413231 -0.029791 0
-0.441436 +0.052749 0
-0.277939 -0.052692 0
-0.607717 +0.235806 0
-0.460064 +0.140879 0
-0.468116 +0.229860 0
-0.291776 +0.124894 0
-0.288127 +0.034430 0
-0.100907 -0.077970 0
-0.100065 +0.011957 0
+0.096907 -0.102997 0
-0.288689 +0.213869 0
-0.096907 +0.102997 0
-0.091599 +0.190318 0
+0.100907 +0.077970 0
+0.100065 -0.011957 0
+0.291776 -0.124894 0
+0.288127 -0.034430 0
+0.460064 -0.140879 0
+0.099383 +0.162047 0
+0.277939 +0.052692 0
+0.261743 +0.131911 0
+0.413231 +0.029791 0
+0.441436 -0.052749 0
+0.581079 -0.148605 0
+0.541502 -0.064706 0
+0.639579 -0.146456 0
+0.376923 +0.102454 0
+0.491109 +0.011345 0
+0.432534 +0.075635 0
+0.503053 -0.001350 0
+0.576254 -0.068859 0
+0.627634 -0.133761 0
+0.541502 -0.064706 0
+0.545608 -0.110906 0
+0.423796 +0.052635 0
+0.448702 -0.007909 0
+0.354064 +0.033787 0
+0.335858 -0.008867 0
+0.441436 -0.052749 0
+0.402146 -0.079321 0
+0.288127 -0.034430 0
+0.213169 -0.041347 0
+0.234349 +0.018599 0
+0.179514 -0.005577 0
+0.081910 +0.005905 0
+0.100065 -0.011957 0
-0.125295 +0.044465 0
-0.238829 +0.074247 0
-0.128782 +0.055125 0
-0.252861 +0.100245 0
-0.374613 +0.162765 0
-0.481921 +0.195518 0
-0.363594 +0.131031 0
-0.453224 +0.144186 0
-0.566415 +0.210697 0
-0.621565 +0.205886 0
-0.586547 +0.262770 0
-0.666047 +0.281231 0
-0.746164 +0.350669 0
-0.789125 +0.353522 0
-0.714598 +0.279487 0
-0.727524 +0.256133 0
-0.795154 +0.334300 0
-0.761917 +0.292687 0
-0.840796 +0.422856 0
-0.841818 +0.409526 0
-0.864851 +0.476814 0
-0.822524 +0.447541 0
-0.802690 +0.373116 0
-0.723698 +0.314437 0
-0.739924 +0.395109 0
-0.619994 +0.321436 0
-0.820314 +0.511229 0
-0.737427 +0.467081 0
-0.716358 +0.525988 0
-0.599633 +0.468810 0
-0.617247 +0.400625 0
-0.465169 +0.314811 0
-0.451385 +0.391048 0
-0.279032 +0.296568 0
-0.568121 +0.522074 0
-0.427502 +0.454368 0
-0.394802 +0.501364 0
-0.242381 +0.426120 0
-0.263323 +0.368576 0
-0.084417 +0.269313 0
-0.075745 +0.335918 0
+0.095586 +0.235928 0
-0.217307 +0.466354 0
-0.066013 +0.386851 0
-0.055724 +0.419864 0
+0.082069 +0.339447 0
+0.089705 +0.295973 0
+0.240400 +0.199233 0
+0.215000 +0.251508 0
+0.334415 +0.161681 0
+0.073057 +0.364739 0
+0.186847 +0.286606 0
+0.157305 +0.303588 0
+0.239540 +0.230602 0
+0.287849 +0.204887 0
+0.368808 +0.125127 0
+0.303092 +0.157879 0
+0.342533 +0.090682 0
+0.191744 +0.238594 0
+0.238546 +0.173137 0
+0.178043 +0.171406 0
+0.189493 +0.115288 0
+0.263213 +0.111560 0
+0.262355 +0.058678 0
+0.177908 +0.066325 0
+0.141923 +0.028750 0
+0.124438 +0.103132 0
+0.104391 +0.057555 0
+0.044537 +0.034414 0
+0.062766 +0.021993 0
-0.124554 +0.060070 0
-0.252511 +0.116078 0
-0.112221 +0.058596 0
-0.236272 +0.119650 0
-0.327449 +0.173314 0
-0.452789 +0.234162 0
-0.362962 +0.177558 0
-0.482781 +0.226887 0
-0.570426 +0.287271 0
-0.671005 +0.327532 0
-0.516016 +0.280770 0
-0.631916 +0.338735 0
-0.663302 +0.376635 0
-0.760002 +0.429211 0
-0.730046 +0.384610 0
-0.801955 +0.413817 0
-0.830054 +0.465790 0
-0.866592 +0.482516 0
-0.759027 +0.457303 0
-0.828787 +0.502319 0
-0.798268 +0.520082 0
-0.836182 +0.555838 0
-0.865011 +0.528058 0
-0.862952 +0.531542 0
-0.836257 +0.569808 0
-0.796206 +0.560009 0
-0.781847 +0.563306 0
-0.786329 +0.588663 0
-0.716067 +0.586355 0
-0.688950 +0.600777 0
-0.751580 +0.590599 0
-0.677890 +0.568189 0
-0.624152 +0.591065 0
-0.524408 +0.557365 0
-0.611819 +0.589591 0
-0.558064 +0.593135 0
-0.483177 +0.574219 0
-0.410220 +0.567471 0
-0.470843 +0.572745 0
-0.354993 +0.529605 0
-0.310144 +0.537850 0
-0.189359 +0.487494 0
-0.345658 +0.542093 0
-0.262488 +0.526067 0
-0.214347 +0.495493 0
-0.130413 +0.471502 0
-0.159937 +0.488992 0
-0.045350 +0.433843 0
-0.035383 +0.428922 0
+0.063151 +0.371417 0
-0.102127 +0.436897 0
-0.026216 +0.406417 0
-0.018209 +0.368779 0
+0.042569 +0.333309 0