# vtk DataFile Version 2.0
MyTitle
ASCII
DATASET UNSTRUCTURED_GRID
POINTS 1045 double
1.000000 -1.000000 0.000000
1.000000 1.000000 0.000000
-1.000000 1.000000 0.000000
-1.000000 -1.000000 0.000000
1.000000 -0.888889 0.000000
1.000000 -0.777778 0.000000
1.000000 -0.666667 0.000000
1.000000 -0.555556 0.000000
1.000000 -0.444444 0.000000
1.000000 -0.333333 0.000000
1.000000 -0.222222 0.000000
1.000000 -0.111111 0.000000
1.000000 -0.000000 0.000000
1.000000 0.111111 0.000000
1.000000 0.222222 0.000000
1.000000 0.333333 0.000000
1.000000 0.444444 0.000000
1.000000 0.555556 0.000000
1.000000 0.666667 0.000000
1.000000 0.777778 0.000000
1.000000 0.888889 0.000000
1.000000 -0.944444 0.000000
1.000000 -0.833333 0.000000
1.000000 -0.722222 0.000000
1.000000 -0.611111 0.000000
1.000000 -0.500000 0.000000
1.000000 -0.388889 0.000000
1.000000 -0.277778 0.000000
1.000000 -0.166667 0.000000
1.000000 -0.055556 0.000000
1.000000 0.055556 0.000000
1.000000 0.166667 0.000000
1.000000 0.277778 0.000000
1.000000 0.388889 0.000000
1.000000 0.500000 0.000000
1.000000 0.611111 0.000000
1.000000 0.722222 0.000000
1.000000 0.833333 0.000000
1.000000 0.944444 0.000000
0.888889 1.000000 0.000000
0.777778 1.000000 0.000000
0.666667 1.000000 0.000000
0.555556 1.000000 0.000000
0.444444 1.000000 0.000000
0.333333 1.000000 0.000000
0.222222 1.000000 0.000000
0.111111 1.000000 0.000000
0.000000 1.000000 0.000000
-0.111111 1.000000 0.000000
-0.222222 1.000000 0.000000
-0.333333 1.000000 0.000000
-0.444444 1.000000 0.000000
-0.555556 1.000000 0.000000
-0.666667 1.000000 0.000000
-0.777778 1.000000 0.000000
-0.888889 1.000000 0.000000
0.944444 1.000000 0.000000
0.833333 1.000000 0.000000
0.722222 1.000000 0.000000
0.611111 1.000000 0.000000
0.500000 1.000000 0.000000
0.388889 1.000000 0.000000
0.277778 1.000000 0.000000
0.166667 1.000000 0.000000
0.055556 1.000000 0.000000
-0.055556 1.000000 0.000000
-0.166667 1.000000 0.000000
-0.277778 1.000000 0.000000
-0.388889 1.000000 0.000000
-0.500000 1.000000 0.000000
-0.611111 1.000000 0.000000
-0.722222 1.000000 0.000000
-0.833333 1.000000 0.000000
-0.944444 1.000000 0.000000
-1.000000 0.888889 0.000000
-1.000000 0.777778 0.000000
-1.000000 0.666667 0.000000
-1.000000 0.555556 0.000000
-1.000000 0.444444 0.000000
-1.000000 0.333333 0.000000
-1.000000 0.222222 0.000000
-1.000000 0.111111 0.000000
-1.000000 0.000000 0.000000
-1.000000 -0.111111 0.000000
-1.000000 -0.222222 0.000000
-1.000000 -0.333333 0.000000
-1.000000 -0.444444 0.000000
-1.000000 -0.555556 0.000000
-1.000000 -0.666667 0.000000
-1.000000 -0.777778 0.000000
-1.000000 -0.888889 0.000000
-1.000000 0.944444 0.000000
-1.000000 0.833333 0.000000
-1.000000 0.722222 0.000000
-1.000000 0.611111 0.000000
-1.000000 0.500000 0.000000
-1.000000 0.388889 0.000000
-1.000000 0.277778 0.000000
-1.000000 0.166667 0.000000
-1.000000 0.055556 0.000000
-1.000000 -0.055556 0.000000
-1.000000 -0.166667 0.000000
-1.000000 -0.277778 0.000000
-1.000000 -0.388889 0.000000
-1.000000 -0.500000 0.000000
-1.000000 -0.611111 0.000000
-1.000000 -0.722222 0.000000
-1.000000 -0.833333 0.000000
-1.000000 -0.944444 0.000000
-0.888889 -1.000000 0.000000
-0.777778 -1.000000 0.000000
-0.666667 -1.000000 0.000000
-0.555556 -1.000000 0.000000
-0.444444 -1.000000 0.000000
-0.333333 -1.000000 0.000000
-0.222222 -1.000000 0.000000
-0.111111 -1.000000 0.000000
-0.000000 -1.000000 0.000000
0.111111 -1.000000 0.000000
0.222222 -1.000000 0.000000
0.333333 -1.000000 0.000000
0.444444 -1.000000 0.000000
0.555556 -1.000000 0.000000
0.666667 -1.000000 0.000000
0.777778 -1.000000 0.000000
0.888889 -1.000000 0.000000
-0.944444 -1.000000 0.000000
-0.833333 -1.000000 0.000000
-0.722222 -1.000000 0.000000
-0.611111 -1.000000 0.000000
-0.500000 -1.000000 0.000000
-0.388889 -1.000000 0.000000
-0.277778 -1.000000 0.000000
-0.166667 -1.000000 0.000000
-0.055556 -1.000000 0.000000
0.055556 -1.000000 0.000000
0.166667 -1.000000 0.000000
0.277778 -1.000000 0.000000
0.388889 -1.000000 0.000000
0.500000 -1.000000 0.000000
0.611111 -1.000000 0.000000
0.722222 -1.000000 0.000000
0.833333 -1.000000 0.000000
0.944444 -1.000000 0.000000
-0.777778 0.777778 0.000000
-0.555556 0.777778 0.000000
-0.333333 0.777778 0.000000
-0.111111 0.777778 0.000000
0.111111 0.777778 0.000000
0.333333 0.777778 0.000000
0.555556 0.777778 0.000000
0.777778 0.777778 0.000000
-0.777778 0.555556 0.000000
-0.555556 0.555556 0.000000
-0.333333 0.555556 0.000000
-0.111111 0.555556 0.000000
0.111111 0.555556 0.000000
0.333333 0.555556 0.000000
0.555556 0.555556 0.000000
0.777778 0.555556 0.000000
-0.777778 0.333333 0.000000
-0.555556 0.333333 0.000000
-0.333333 0.333333 0.000000
-0.111111 0.333333 0.000000
0.111111 0.333333 0.000000
0.333333 0.333333 0.000000
0.555556 0.333333 0.000000
0.777778 0.333333 0.000000
-0.777778 0.111111 0.000000
-0.555556 0.111111 0.000000
-0.333333 0.111111 0.000000
-0.111111 0.111111 0.000000
0.111111 0.111111 0.000000
0.333333 0.111111 0.000000
0.555556 0.111111 0.000000
0.777778 0.111111 0.000000
-0.777778 -0.111111 0.000000
-0.555556 -0.111111 0.000000
-0.333333 -0.111111 0.000000
-0.111111 -0.111111 0.000000
0.111111 -0.111111 0.000000
0.333333 -0.111111 0.000000
0.555556 -0.111111 0.000000
0.777778 -0.111111 0.000000
-0.777778 -0.333333 0.000000
-0.555556 -0.333333 0.000000
-0.333333 -0.333333 0.000000
-0.111111 -0.333333 0.000000
0.111111 -0.333333 0.000000
0.333333 -0.333333 0.000000
0.555556 -0.333333 0.000000
0.777778 -0.333333 0.000000
-0.777778 -0.555556 0.000000
-0.555556 -0.555556 0.000000
-0.333333 -0.555556 0.000000
-0.111111 -0.555556 0.000000
0.111111 -0.555556 0.000000
0.333333 -0.555556 0.000000
0.555556 -0.555556 0.000000
0.777778 -0.555556 0.000000
-0.777778 -0.777778 0.000000
-0.555556 -0.777778 0.000000
-0.333333 -0.777778 0.000000
-0.111111 -0.777778 0.000000
0.111111 -0.777778 0.000000
0.333333 -0.777778 0.000000
0.555556 -0.777778 0.000000
0.777778 -0.777778 0.000000
-0.888889 0.777778 0.000000
-0.777778 0.888889 0.000000
-0.888889 0.888889 0.000000
-0.666667 0.777778 0.000000
-0.555556 0.888889 0.000000
-0.666667 0.888889 0.000000
-0.444444 0.777778 0.000000
-0.333333 0.888889 0.000000
-0.444444 0.888889 0.000000
-0.222222 0.777778 0.000000
-0.111111 0.888889 0.000000
-0.222222 0.888889 0.000000
0.000000 0.777778 0.000000
0.111111 0.888889 0.000000
0.000000 0.888889 0.000000
0.222222 0.777778 0.000000
0.333333 0.888889 0.000000
0.222222 0.888889 0.000000
0.444444 0.777778 0.000000
0.555556 0.888889 0.000000
0.444444 0.888889 0.000000
0.666667 0.777778 0.000000
0.777778 0.888889 0.000000
0.666667 0.888889 0.000000
0.888889 0.777778 0.000000
0.888889 0.888889 0.000000
-0.888889 0.555556 0.000000
-0.777778 0.666667 0.000000
-0.888889 0.666667 0.000000
-0.666667 0.555556 0.000000
-0.555556 0.666667 0.000000
-0.666667 0.666667 0.000000
-0.444444 0.555556 0.000000
-0.333333 0.666667 0.000000
-0.444444 0.666667 0.000000
-0.222222 0.555556 0.000000
-0.111111 0.666667 0.000000
-0.222222 0.666667 0.000000
0.000000 0.555556 0.000000
0.111111 0.666667 0.000000
0.000000 0.666667 0.000000
0.222222 0.555556 0.000000
0.333333 0.666667 0.000000
0.222222 0.666667 0.000000
0.444444 0.555556 0.000000
0.555556 0.666667 0.000000
0.444444 0.666667 0.000000
0.666667 0.555556 0.000000
0.777778 0.666667 0.000000
0.666667 0.666667 0.000000
0.888889 0.555556 0.000000
0.888889 0.666667 0.000000
-0.888889 0.333333 0.000000
-0.777778 0.444444 0.000000
-0.888889 0.444444 0.000000
-0.666667 0.333333 0.000000
-0.555556 0.444444 0.000000
-0.666667 0.444444 0.000000
-0.444444 0.333333 0.000000
-0.333333 0.444444 0.000000
-0.444444 0.444444 0.000000
-0.222222 0.333333 0.000000
-0.111111 0.444444 0.000000
-0.222222 0.444444 0.000000
0.000000 0.333333 0.000000
0.111111 0.444444 0.000000
0.000000 0.444444 0.000000
0.222222 0.333333 0.000000
0.333333 0.444444 0.000000
0.222222 0.444444 0.000000
0.444444 0.333333 0.000000
0.555556 0.444444 0.000000
0.444444 0.444444 0.000000
0.666667 0.333333 0.000000
0.777778 0.444444 0.000000
0.666667 0.444444 0.000000
0.888889 0.333333 0.000000
0.888889 0.444444 0.000000
-0.888889 0.111111 0.000000
-0.777778 0.222222 0.000000
-0.888889 0.222222 0.000000
-0.666667 0.111111 0.000000
-0.555556 0.222222 0.000000
-0.666667 0.222222 0.000000
-0.444444 0.111111 0.000000
-0.333333 0.222222 0.000000
-0.444444 0.222222 0.000000
-0.222222 0.111111 0.000000
-0.111111 0.222222 0.000000
-0.222222 0.222222 0.000000
0.000000 0.111111 0.000000
0.111111 0.222222 0.000000
0.000000 0.222222 0.000000
0.222222 0.111111 0.000000
0.333333 0.222222 0.000000
0.222222 0.222222 0.000000
0.444444 0.111111 0.000000
0.555556 0.222222 0.000000
0.444444 0.222222 0.000000
0.666667 0.111111 0.000000
0.777778 0.222222 0.000000
0.666667 0.222222 0.000000
0.888889 0.111111 0.000000
0.888889 0.222222 0.000000
-0.888889 -0.111111 0.000000
-0.777778 0.000000 0.000000
-0.888889 0.000000 0.000000
-0.666667 -0.111111 0.000000
-0.555556 0.000000 0.000000
-0.666667 0.000000 0.000000
-0.444444 -0.111111 0.000000
-0.333333 0.000000 0.000000
-0.444444 0.000000 0.000000
-0.222222 -0.111111 0.000000
-0.111111 0.000000 0.000000
-0.222222 0.000000 0.000000
-0.000000 -0.111111 0.000000
0.111111 -0.000000 0.000000
-0.000000 -0.000000 0.000000
0.222222 -0.111111 0.000000
0.333333 -0.000000 0.000000
0.222222 -0.000000 0.000000
0.444444 -0.111111 0.000000
0.555556 -0.000000 0.000000
0.444444 -0.000000 0.000000
0.666667 -0.111111 0.000000
0.777778 -0.000000 0.000000
0.666667 -0.000000 0.000000
0.888889 -0.111111 0.000000
0.888889 -0.000000 0.000000
-0.888889 -0.333333 0.000000
-0.777778 -0.222222 0.000000
-0.888889 -0.222222 0.000000
-0.666667 -0.333333 0.000000
-0.555556 -0.222222 0.000000
-0.666667 -0.222222 0.000000
-0.444444 -0.333333 0.000000
-0.333333 -0.222222 0.000000
-0.444444 -0.222222 0.000000
-0.222222 -0.333333 0.000000
-0.111111 -0.222222 0.000000
-0.222222 -0.222222 0.000000
-0.000000 -0.333333 0.000000
0.111111 -0.222222 0.000000
-0.000000 -0.222222 0.000000
0.222222 -0.333333 0.000000
0.333333 -0.222222 0.000000
[...]
POINT_DATA 1045
VECTORS sol double
+0.000000 +0.000000 0
+0.000000 +0.000000 0
+0.000000 +0.000000 0
+0.000000 +0.000000 0
+0.000000 +0.000000 0
+0.000000 +0.000000 0
+0.000000 +0.000000 0
+0.000000 +0.000000 0
+0.000000 +0.000000 0
+0.000000 +0.000000 0
+0.000000 +0.000000 0
+0.000000 +0.000000 0
+0.000000 +0.000000 0
+0.000000 +0.000000 0
+0.000000 +0.000000 0
+0.000000 +0.000000 0
+0.000000 +0.000000 0
+0.000000 +0.000000 0
+0.000000 +0.000000 0
+0.000000 +0.000000 0
+0.000000 +0.000000 0
+0.000000 +0.000000 0
+0.000000 +0.000000 0
+0.000000 +0.000000 0
+0.000000 +0.000000 0
+0.000000 +0.000000 0
+0.000000 +0.000000 0
+0.000000 +0.000000 0
+0.000000 +0.000000 0
+0.000000 +0.000000 0
+0.000000 +0.000000 0
+0.000000 +0.000000 0
+0.000000 +0.000000 0
+0.000000 +0.000000 0
+0.000000 +0.000000 0
+0.000000 +0.000000 0
+0.000000 +0.000000 0
+0.000000 +0.000000 0
+0.000000 +0.000000 0
+0.000000 +0.000000 0
+0.000000 +0.000000 0
+0.000000 +0.000000 0
+0.000000 +0.000000 0
+0.000000 +0.000000 0
+0.000000 +0.000000 0
+0.000000 +0.000000 0
+0.000000 +0.000000 0
+0.000000 +0.000000 0
+0.000000 +0.000000 0
+0.000000 +0.000000 0
+0.000000 +0.000000 0
+0.000000 +0.000000 0
+0.000000 +0.000000 0
+0.000000 +0.000000 0
+0.000000 +0.000000 0
+0.000000 +0.000000 0
+0.000000 +0.000000 0
+0.000000 +0.000000 0
+0.000000 +0.000000 0
+0.000000 +0.000000 0
+0.000000 +0.000000 0
+0.000000 +0.000000 0
+0.000000 +0.000000 0
+0.000000 +0.000000 0
+0.000000 +0.000000 0
+0.000000 +0.000000 0
+0.000000 +0.000000 0
+0.000000 +0.000000 0
+0.000000 +0.000000 0
+0.000000 +0.000000 0
+0.000000 +0.000000 0
+0.000000 +0.000000 0
+0.000000 +0.000000 0
+0.000000 +0.000000 0
+0.000000 +0.000000 0
+0.000000 +0.000000 0
+0.000000 +0.000000 0
+0.000000 +0.000000 0
+0.000000 +0.000000 0
+0.000000 +0.000000 0
+0.000000 +0.000000 0
+0.000000 +0.000000 0
+0.000000 +0.000000 0
+0.000000 +0.000000 0
+0.000000 +0.000000 0
+0.000000 +0.000000 0
+0.000000 +0.000000 0
+0.000000 +0.000000 0
+0.000000 +0.000000 0
+0.000000 +0.000000 0
+0.000000 +0.000000 0
+0.000000 +0.000000 0
+0.000000 +0.000000 0
+0.000000 +0.000000 0
+0.000000 +0.000000 0
+0.000000 +0.000000 0
+0.000000 +0.000000 0
+0.000000 +0.000000 0
+0.000000 +0.000000 0
+0.000000 +0.000000 0
+0.000000 +0.000000 0
+0.000000 +0.000000 0
+0.000000 +0.000000 0
+0.000000 +0.000000 0
+0.000000 +0.000000 0
+0.000000 +0.000000 0
+0.000000 +0.000000 0
+0.000000 +0.000000 0
+0.000000 +0.000000 0
+0.000000 +0.000000 0
+0.000000 +0.000000 0
+0.000000 +0.000000 0
+0.000000 +0.000000 0
+0.000000 +0.000000 0
+0.000000 +0.000000 0
+0.000000 +0.000000 0
+0.000000 +0.000000 0
+0.000000 +0.000000 0
+0.000000 +0.000000 0
+0.000000 +0.000000 0
+0.000000 +0.000000 0
+0.000000 +0.000000 0
+0.000000 +0.000000 0
+0.000000 +0.000000 0
+0.000000 +0.000000 0
+0.000000 +0.000000 0
+0.000000 +0.000000 0
+0.000000 +0.000000 0
+0.000000 +0.000000 0
+0.000000 +0.000000 0
+0.000000 +0.000000 0
+0.000000 +0.000000 0
+0.000000 +0.000000 0
+0.000000 +0.000000 0
+0.000000 +0.000000 0
+0.000000 +0.000000 0
+0.000000 +0.000000 0
+0.000000 +0.000000 0
+0.000000 +0.000000 0
+0.000000 +0.000000 0
+0.000000 +0.000000 0
+0.000000 +0.000000 0
+0.000000 +0.000000 0
+0.000000 +0.000000 0
-0.388962 +0.125479 0
-0.591502 +0.205941 0
-0.583192 +0.231680 0
-0.504540 +0.229475 0
-0.504540 +0.229475 0
-0.583192 +0.231680 0
-0.591502 +0.205941 0
-0.388962 +0.125479 0
-0.528469 +0.155362 0
-0.731009 +0.235824 0
-0.583192 +0.231680 0
-0.365033 +0.199592 0
-0.365033 +0.199592 0
-0.583192 +0.231680 0
-0.731009 +0.235824 0
-0.528469 +0.155362 0
-0.401694 +0.086044 0
-0.401694 +0.086044 0
-0.000000 +0.000000 0
+0.401694 -0.086044 0
+0.401694 -0.086044 0
+0.000000 -0.000000 0
-0.401694 +0.086044 0
-0.401694 +0.086044 0
-0.226469 +0.006348 0
-0.023928 -0.074113 0
+0.583192 -0.231680 0
+1.119971 -0.361303 0
+1.119971 -0.361303 0
+0.583192 -0.231680 0
-0.023928 -0.074113 0
-0.226469 +0.006348 0
-0.226469 +0.006348 0
-0.023928 -0.074113 0
+0.583192 -0.231680 0
+1.119971 -0.361303 0
+1.119971 -0.361303 0
+0.583192 -0.231680 0
-0.023928 -0.074113 0
-0.226469 +0.006348 0
-0.401694 +0.086044 0
-0.401694 +0.086044 0
+0.000000 -0.000000 0
+0.401694 -0.086044 0
+0.401694 -0.086044 0
-0.000000 +0.000000 0
-0.401694 +0.086044 0
-0.401694 +0.086044 0
-0.528469 +0.155362 0
-0.731009 +0.235824 0
-0.583192 +0.231680 0
-0.365033 +0.199592 0
-0.365033 +0.199592 0
-0.583192 +0.231680 0
-0.731009 +0.235824 0
-0.528469 +0.155362 0
-0.388962 +0.125479 0
-0.591502 +0.205941 0
-0.583192 +0.231680 0
-0.504540 +0.229475 0
-0.504540 +0.229475 0
-0.583192 +0.231680 0
-0.591502 +0.205941 0
-0.388962 +0.125479 0
-0.208528 +0.066074 0
-0.213520 +0.070079 0
-0.114016 +0.036781 0
-0.519889 +0.172999 0
-0.330457 +0.116534 0
-0.287402 +0.097149 0
-0.607455 +0.224552 0
-0.336706 +0.133761 0
-0.344336 +0.128279 0
-0.541209 +0.231768 0
-0.302344 +0.134854 0
-0.318845 +0.135178 0
-0.490229 +0.228282 0
-0.302344 +0.134854 0
-0.295790 +0.134531 0
-0.541209 +0.231768 0
-0.336706 +0.133761 0
-0.318845 +0.135178 0
-0.607455 +0.224552 0
-0.330457 +0.116534 0
-0.344336 +0.128279 0
-0.519889 +0.172999 0
-0.213520 +0.070079 0
-0.287402 +0.097149 0
-0.208528 +0.066074 0
-0.114016 +0.036781 0
-0.289073 +0.083327 0
-0.497869 +0.155330 0
-0.268925 +0.082323 0
-0.680978 +0.207505 0
-0.731743 +0.248239 0
-0.656590 +0.211816 0
-0.687999 +0.241805 0
-0.673412 +0.267521 0
-0.729566 +0.265318 0
-0.460664 +0.214515 0
-0.533858 +0.254536 0
-0.596797 +0.261596 0
-0.329140 +0.193777 0
-0.533858 +0.254536 0
-0.509793 +0.251544 0
-0.460664 +0.214515 0
-0.673412 +0.267521 0
-0.596797 +0.261596 0
-0.687999 +0.241805 0
-0.731743 +0.248239 0
-0.729566 +0.265318 0
-0.680978 +0.207505 0
-0.497869 +0.155330 0
-0.656590 +0.211816 0
-0.289073 +0.083327 0
-0.268925 +0.082323 0
-0.231918 +0.049678 0
-0.488295 +0.128937 0
-0.272657 +0.070763 0
-0.463836 +0.099355 0
-0.605231 +0.175391 0
-0.604684 +0.165112 0
-0.231918 +0.049678 0
-0.336706 +0.133761 0
-0.502977 +0.162261 0
+0.231918 -0.049678 0
-0.027569 +0.075996 0
-0.160204 +0.101196 0
+0.463836 -0.099355 0
-0.027569 +0.075996 0
+0.021492 +0.066568 0
+0.231918 -0.049678 0
-0.336706 +0.133761 0
-0.160204 +0.101196 0
-0.231918 +0.049678 0
-0.605231 +0.175391 0
-0.502977 +0.162261 0
-0.463836 +0.099355 0
-0.488295 +0.128937 0
-0.604684 +0.165112 0
-0.231918 +0.049678 0
-0.272657 +0.070763 0
-0.146791 +0.010037 0
-0.302888 +0.040537 0
-0.184132 +0.027083 0
-0.190749 -0.020778 0
-0.185951 -0.005917 0
-0.308894 +0.030580 0
+0.252136 -0.148442 0
+0.336706 -0.133761 0
+0.046188 -0.064415 0
+0.896528 -0.307879 0
+0.818751 -0.245470 0
+0.616993 -0.199042 0
+1.200867 -0.380504 0
+0.818751 -0.245470 0
+0.892086 -0.262260 0
+0.896528 -0.307879 0
+0.336706 -0.133761 0
+0.616993 -0.199042 0
+0.252136 -0.148442 0
-0.185951 -0.005917 0
+0.046188 -0.064415 0
-0.190749 -0.020778 0
-0.302888 +0.040537 0
-0.308894 +0.030580 0
-0.146791 +0.010037 0
-0.184132 +0.027083 0
-0.146791 +0.010037 0
-0.197885 -0.006297 0
-0.132769 +0.003722 0
-0.190749 -0.020778 0
+0.035989 -0.099206 0
-0.146797 -0.039728 0
+0.252136 -0.148442 0
+0.673412 -0.267521 0
+0.327872 -0.179273 0
+0.896528 -0.307879 0
+1.229612 -0.403569 0
+0.998491 -0.347640 0
+1.200867 -0.380504 0
+1.229612 -0.403569 0
+1.313181 -0.423632 0
+0.896528 -0.307879 0
+0.673412 -0.267521 0
+0.998491 -0.347640 0
+0.252136 -0.148442 0
+0.035989 -0.099206 0
+0.327872 -0.179273 0
-0.190749 -0.020778 0
-0.197885 -0.006297 0
-0.146797 -0.039728 0
-0.146791 +0.010037 0
-0.132769 +0.003722 0
-0.231918 +0.049678 0
-0.302888 +0.040537 0
-0.184132 +0.027083 0
-0.463836 +0.099355 0
-0.185951 -0.005917 0
-0.308894 +0.030580 0
-0.231918 +0.049678 0
+0.336706 -0.133761 0
+0.046188 -0.064415 0
+0.231918 -0.049678 0
+0.818751 -0.245470 0
+0.616993 -0.199042 0
+0.463836 -0.099355 0
+0.818751 -0.245470 0
+0.892086 -0.262260 0
+0.231918 -0.049678 0
+0.336706 -0.133761 0
+0.616993 -0.199042 0
-0.231918 +0.049678 0
-0.185951 -0.005917 0
+0.046188 -0.064415 0
-0.463836 +0.099355 0
-0.302888 +0.040537 0
-0.308894 +0.030580 0
-0.231918 +0.049678 0
-0.184132 +0.027083 0
-0.289073 +0.083327 0
-0.488295 +0.128937 0
-0.272657 +0.070763 0
-0.680978 +0.207505 0
-0.605231 +0.175391 0
-0.604684 +0.165112 0
-0.687999 +0.241805 0
-0.336706 +0.133761 0
-0.502977 +0.162261 0
-0.460664 +0.214515 0
-0.027569 +0.075996 0
-0.160204 +0.101196 0
-0.329140 +0.193777 0
-0.027569 +0.075996 0
+0.021492 +0.066568 0
-0.460664 +0.214515 0
-0.336706 +0.133761 0
-0.160204 +0.101196 0
-0.687999 +0.241805 0
-0.605231 +0.175391 0
-0.502977 +0.162261 0
-0.680978 +0.207505 0
-0.488295 +0.128937 0
-0.604684 +0.165112 0
-0.289073 +0.083327 0
-0.272657 +0.070763 0
-0.208528 +0.066074 0
-0.497869 +0.155330 0
-0.268925 +0.082323 0
-0.519889 +0.172999 0
-0.731743 +0.248239 0
-0.656590 +0.211816 0
-0.607455 +0.224552 0
-0.673412 +0.267521 0
-0.729566 +0.265318 0
-0.541209 +0.231768 0
-0.533858 +0.254536 0
-0.596797 +0.261596 0
-0.490229 +0.228282 0
-0.533858 +0.254536 0
-0.509793 +0.251544 0
-0.541209 +0.231768 0
-0.673412 +0.267521 0
-0.596797 +0.261596 0
-0.607455 +0.224552 0
-0.731743 +0.248239 0
-0.729566 +0.265318 0
-0.519889 +0.172999 0
-0.497869 +0.155330 0
-0.656590 +0.211816 0
-0.208528 +0.066074 0
-0.268925 +0.082323 0
-0.213520 +0.070079 0
-0.114016 +0.036781 0
-0.330457 +0.116534 0
-0.287402 +0.097149 0
-0.336706 +0.133761 0
-0.344336 +0.128279 0
-0.302344 +0.134854 0
-0.318845 +0.135178 0
-0.302344 +0.134854 0
-0.295790 +0.134531 0
-0.336706 +0.133761 0
-0.318845 +0.135178 0
-0.330457 +0.116534 0
-0.344336 +0.128279 0
-0.213520 +0.070079 0
-0.287402 +0.097149 0
-0.114016 +0.036781 0
-0.057961 +0.018619 0
-0.058291 +0.018884 0
-0.106111 +0.033474 0
-0.164800 +0.052780 0
-0.303844 +0.096993 0
-0.308126 +0.100429 0
-0.166404 +0.054067 0
-0.109266 +0.036006 0
-0.254166 +0.084525 0
-0.147317 +0.049977 0
-0.461572 +0.150973 0
-0.413567 +0.138917 0
-0.563237 +0.191361 0
-0.473508 +0.166129 0
-0.312863 +0.107843 0
-0.169800 +0.060054 0
-0.340711 +0.123312 0
-0.177520 +0.066249 0
-0.605752 +0.216930 0
-0.490540 +0.182184 0
-0.599088 +0.229316 0
-0.476199 +0.189176 0
-0.342582 +0.131688 0
-0.174301 +0.069243 0
-0.328326 +0.134838 0
-0.165786 +0.070133 0
-0.562958 +0.232321 0
-0.447390 +0.190420 0
-0.520986 +0.230681 0
-0.421454 +0.189406 0
-0.309812 +0.135116 0
-0.157778 +0.070080 0
-0.297508 +0.134635 0
-0.154582 +0.069955 0
-0.493957 +0.228623 0
-0.411234 +0.188746 0
-0.493957 +0.228623 0
-0.421454 +0.189406 0
-0.297508 +0.134635 0
-0.157778 +0.070080 0
-0.309812 +0.135116 0
-0.165786 +0.070133 0
-0.520986 +0.230681 0
-0.447390 +0.190420 0
-0.562958 +0.232321 0
-0.476199 +0.189176 0
-0.328326 +0.134838 0
-0.174301 +0.069243 0
-0.342582 +0.131688 0
-0.177520 +0.066249 0
-0.599088 +0.229316 0
-0.490540 +0.182184 0
-0.605752 +0.216930 0
-0.473508 +0.166129 0
-0.340711 +0.123312 0
-0.169800 +0.060054 0
-0.312863 +0.107843 0
-0.147317 +0.049977 0
-0.563237 +0.191361 0
-0.413567 +0.138917 0
-0.461572 +0.150973 0
-0.308126 +0.100429 0
-0.254166 +0.084525 0
-0.109266 +0.036006 0
-0.166404 +0.054067 0
-0.058291 +0.018884 0
-0.303844 +0.096993 0
-0.164800 +0.052780 0
-0.106111 +0.033474 0
-0.057961 +0.018619 0
-0.137092 +0.041773 0
-0.243618 +0.076061 0
-0.147806 +0.042405 0
-0.284048 +0.084721 0
-0.417757 +0.121393 0
-0.522971 +0.159051 0
-0.390643 +0.120522 0
-0.452945 +0.144051 0
-0.587336 +0.185972 0
-0.601937 +0.197688 0
-0.617179 +0.184304 0
-0.682796 +0.215008 0
-0.718845 +0.224692 0
-0.748887 +0.248799 0
-0.704730 +0.232608 0
-0.678862 +0.233799 0
-0.739256 +0.259013 0
-0.688587 +0.252830 0
-0.719665 +0.241330 0
-0.729016 +0.261490 0
-0.640783 +0.238247 0
-0.650500 +0.258419 0
-0.706333 +0.267911 0
-0.650500 +0.258419 0
-0.635482 +0.265141 0
-0.592649 +0.256156 0
-0.521263 +0.223390 0
-0.552220 +0.247496 0
-0.407073 +0.206280 0
-0.473653 +0.236870 0
-0.561788 +0.257843 0
-0.543679 +0.251870 0
-0.516013 +0.252347 0
-0.524763 +0.249907 0
-0.338349 +0.195291 0
-0.443904 +0.232587 0
-0.338349 +0.195291 0
-0.473653 +0.236870 0
-0.516013 +0.252347 0
-0.543679 +0.251870 0
-0.561788 +0.257843 0
-0.592649 +0.256156 0
-0.407073 +0.206280 0
-0.552220 +0.247496 0
-0.521263 +0.223390 0
-0.650500 +0.258419 0
-0.635482 +0.265141 0
-0.650500 +0.258419 0
-0.706333 +0.267911 0
-0.688587 +0.252830 0
-0.640783 +0.238247 0
-0.729016 +0.261490 0
-0.719665 +0.241330 0
-0.748887 +0.248799 0
-0.739256 +0.259013 0
-0.678862 +0.233799 0
-0.704730 +0.232608 0
-0.601937 +0.197688 0
-0.718845 +0.224692 0
-0.682796 +0.215008 0
-0.617179 +0.184304 0
-0.522971 +0.159051 0
-0.587336 +0.185972 0
-0.452945 +0.144051 0
-0.390643 +0.120522 0
-0.243618 +0.076061 0
-0.417757 +0.121393 0
-0.284048 +0.084721 0
-0.147806 +0.042405 0
-0.137092 +0.041773 0
-0.140084 +0.036210 0
-0.284860 +0.078497 0
-0.120056 +0.025716 0
-0.254334 +0.060877 0
-0.327999 +0.070259 0
-0.448822 +0.108741 0
-0.390768 +0.102126 0
-0.516076 +0.144972 0
-0.560654 +0.150175 0
-0.653687 +0.190351 0
-0.448055 +0.095975 0
-0.539402 +0.133964 0
-0.448055 +0.095975 0
-0.509356 +0.132788 0
-0.619350 +0.173493 0
-0.681458 +0.210672 0
-0.565075 +0.171372 0
-0.610600 +0.207901 0
-0.327999 +0.070259 0
-0.373563 +0.108242 0
-0.120056 +0.025716 0
-0.174301 +0.069243 0
-0.424705 +0.149279 0
-0.476199 +0.189176 0
-0.246202 +0.117247 0
-0.327330 +0.164703 0
+0.120056 -0.025716 0
+0.030257 +0.028140 0
+0.327999 -0.070259 0
+0.181777 -0.002654 0
-0.085447 +0.087056 0
-0.213504 +0.144862 0
+0.008979 +0.068984 0
-0.171114 +0.137311 0
+0.448055 -0.095975 0
+0.237504 -0.014031 0
+0.448055 -0.095975 0
+0.181777 -0.002654 0
+0.008979 +0.068984 0
-0.213504 +0.144862 0
-0.085447 +0.087056 0
-0.327330 +0.164703 0
+0.327999 -0.070259 0
+0.030257 +0.028140 0
+0.120056 -0.025716 0
-0.174301 +0.069243 0
-0.246202 +0.117247 0
-0.476199 +0.189176 0
-0.424705 +0.149279 0
-0.610600 +0.207901 0
-0.120056 +0.025716 0
-0.373563 +0.108242 0
-0.327999 +0.070259 0
-0.509356 +0.132788 0
-0.565075 +0.171372 0
-0.681458 +0.210672 0
-0.619350 +0.173493 0
-0.653687 +0.190351 0
-0.448055 +0.095975 0
-0.539402 +0.133964 0
-0.448055 +0.095975 0
-0.448822 +0.108741 0
-0.560654 +0.150175 0
-0.516076 +0.144972 0
-0.390768 +0.102126 0
-0.284860 +0.078497 0
-0.327999 +0.070259 0
-0.254334 +0.060877 0
-0.120056 +0.025716 0
-0.140084 +0.036210 0
-0.096380 +0.014441 0
-0.207777 +0.038109 0
-0.077826 +0.005926 0
-0.163210 +0.017481 0
-0.198680 +0.010650 0
-0.260004 +0.021267 0
-0.255263 +0.036256 0
-0.351578 +0.062708 0
-0.321842 +0.038859 0
-0.384820 +0.064008 0
-0.224888 -0.003930 0
-0.242453 +0.001605 0
-0.123222 -0.044318 0
-0.094622 -0.044433 0
-0.263145 +0.015541 0
-0.291044 +0.038660 0
-0.080956 -0.032989 0
-0.088548 -0.009256 0
+0.103229 -0.109287 0
+0.162530 -0.111923 0
+0.415152 -0.189916 0
+0.476199 -0.189176 0
+0.188241 -0.098628 0
+0.174301 -0.069243 0
+0.482666 -0.167898 0
+0.431854 -0.127126 0
+0.746894 -0.271721 0
+0.775400 -0.260681 0
+1.023509 -0.338323 0
+0.989584 -0.311101 0
+0.731479 -0.225438 0
+0.618622 -0.168795 0
+0.873517 -0.258018 0
+0.686718 -0.183941 0
+1.180417 -0.375665 0
+1.067254 -0.329268 0
+1.180417 -0.375665 0
+0.989584 -0.311101 0
+0.873517 -0.258018 0
+0.618622 -0.168795 0
+0.731479 -0.225438 0
+0.431854 -0.127126 0
+1.023509 -0.338323 0
+0.775400 -0.260681 0
+0.746894 -0.271721 0
+0.476199 -0.189176 0
+0.482666 -0.167898 0
+0.174301 -0.069243 0
+0.188241 -0.098628 0
-0.088548 -0.009256 0
+0.415152 -0.189916 0
+0.162530 -0.111923 0
+0.103229 -0.109287 0
-0.094622 -0.044433 0
-0.080956 -0.032989 0
-0.291044 +0.038660 0
-0.263145 +0.015541 0
-0.384820 +0.064008 0
-0.123222 -0.044318 0
-0.242453 +0.001605 0
-0.224888 -0.003930 0
-0.260004 +0.021267 0
-0.321842 +0.038859 0
-0.351578 +0.062708 0
-0.255263 +0.036256 0
-0.207777 +0.038109 0
-0.198680 +0.010650 0
-0.163210 +0.017481 0
-0.077826 +0.005926 0
-0.096380 +0.014441 0
-0.070851 +0.002769 0
-0.136367 +0.005334 0
-0.077826 +0.005926 0
-0.136367 +0.005334 0
-0.198680 +0.010650 0
-0.205208 -0.003072 0
-0.177468 +0.001170 0
-0.205208 -0.003072 0
-0.188717 -0.019739 0
-0.158033 -0.034899 0
-0.224888 -0.003930 0
-0.158033 -0.034899 0
-0.123222 -0.044318 0
+0.020708 -0.092820 0
-0.071324 -0.066375 0
+0.020708 -0.092820 0
+0.171146 -0.137321 0
+0.308601 -0.171436 0
+0.103229 -0.109287 0
+0.308601 -0.171436 0
+0.415152 -0.189916 0
+0.650500 -0.258419 0
+0.498390 -0.223369 0
+0.650500 -0.258419 0
+0.843425 -0.309684 0
+0.972634 -0.337551 0
+0.746894 -0.271721 0
+0.972634 -0.337551 0
+1.023509 -0.338323 0
+1.201833 -0.392849 0
+1.129899 -0.379534 0
+1.201833 -0.392849 0
+1.292066 -0.418580 0
+1.284733 -0.412696 0
+1.180417 -0.375665 0
+1.284733 -0.412696 0
+1.180417 -0.375665 0
+1.201833 -0.392849 0
+1.292066 -0.418580 0
+1.201833 -0.392849 0
+1.129899 -0.379534 0
+0.972634 -0.337551 0
+1.023509 -0.338323 0
+0.972634 -0.337551 0
+0.746894 -0.271721 0
+0.650500 -0.258419 0
+0.843425 -0.309684 0
+0.650500 -0.258419 0
+0.498390 -0.223369 0
+0.308601 -0.171436 0
+0.415152 -0.189916 0
+0.308601 -0.171436 0
+0.103229 -0.109287 0
+0.020708 -0.092820 0
+0.171146 -0.137321 0
+0.020708 -0.092820 0
-0.071324 -0.066375 0
-0.158033 -0.034899 0
-0.123222 -0.044318 0
-0.158033 -0.034899 0
-0.224888 -0.003930 0
-0.205208 -0.003072 0
-0.188717 -0.019739 0
-0.205208 -0.003072 0
-0.177468 +0.001170 0
-0.136367 +0.005334 0
-0.198680 +0.010650 0
-0.136367 +0.005334 0
-0.077826 +0.005926 0
-0.070851 +0.002769 0
-0.096380 +0.014441 0
-0.163210 +0.017481 0
-0.120056 +0.025716 0
-0.207777 +0.038109 0
-0.327999 +0.070259 0
-0.351578 +0.062708 0
-0.255263 +0.036256 0
-0.260004 +0.021267 0
-0.321842 +0.038859 0
-0.242453 +0.001605 0
-0.448055 +0.095975 0
-0.384820 +0.064008 0
-0.448055 +0.095975 0
-0.291044 +0.038660 0
-0.263145 +0.015541 0
-0.094622 -0.044433 0
-0.080956 -0.032989 0
+0.162530 -0.111923 0
-0.327999 +0.070259 0
-0.088548 -0.009256 0
-0.120056 +0.025716 0
+0.174301 -0.069243 0
+0.188241 -0.098628 0
+0.476199 -0.189176 0
+0.482666 -0.167898 0
+0.775400 -0.260681 0
+0.120056 -0.025716 0
+0.431854 -0.127126 0
+0.327999 -0.070259 0
+0.618622 -0.168795 0
+0.731479 -0.225438 0
+0.989584 -0.311101 0
+0.873517 -0.258018 0
+1.067254 -0.329268 0
+0.448055 -0.095975 0
+0.686718 -0.183941 0
+0.448055 -0.095975 0
+0.618622 -0.168795 0
+0.873517 -0.258018 0
+0.989584 -0.311101 0
+0.731479 -0.225438 0
+0.775400 -0.260681 0
+0.327999 -0.070259 0
+0.431854 -0.127126 0
+0.120056 -0.025716 0
+0.174301 -0.069243 0
+0.482666 -0.167898 0
+0.476199 -0.189176 0
+0.188241 -0.098628 0
+0.162530 -0.111923 0
-0.120056 +0.025716 0
-0.088548 -0.009256 0
-0.327999 +0.070259 0
-0.291044 +0.038660 0
-0.080956 -0.032989 0
-0.094622 -0.044433 0
-0.263145 +0.015541 0
-0.242453 +0.001605 0
-0.448055 +0.095975 0
-0.384820 +0.064008 0
-0.448055 +0.095975 0
-0.351578 +0.062708 0
-0.321842 +0.038859 0
-0.260004 +0.021267 0
-0.255263 +0.036256 0
-0.163210 +0.017481 0
-0.327999 +0.070259 0
-0.207777 +0.038109 0
-0.120056 +0.025716 0
-0.096380 +0.014441 0
-0.140084 +0.036210 0
-0.254334 +0.060877 0
-0.147806 +0.042405 0
-0.284860 +0.078497 0
-0.417757 +0.121393 0
-0.516076 +0.144972 0
-0.390768 +0.102126 0
-0.448822 +0.108741 0
-0.560654 +0.150175 0
-0.539402 +0.133964 0
-0.617179 +0.184304 0
-0.653687 +0.190351 0
-0.718845 +0.224692 0
-0.681458 +0.210672 0
-0.619350 +0.173493 0
-0.509356 +0.132788 0
-0.565075 +0.171372 0
-0.373563 +0.108242 0
-0.719665 +0.241330 0
-0.610600 +0.207901 0
-0.640783 +0.238247 0
-0.476199 +0.189176 0
-0.424705 +0.149279 0
-0.174301 +0.069243 0
-0.246202 +0.117247 0
+0.030257 +0.028140 0
-0.521263 +0.223390 0
-0.327330 +0.164703 0
-0.407073 +0.206280 0
-0.213504 +0.144862 0
-0.085447 +0.087056 0
+0.181777 -0.002654 0
+0.008979 +0.068984 0
+0.237504 -0.014031 0
-0.338349 +0.195291 0
-0.171114 +0.137311 0
-0.338349 +0.195291 0
-0.213504 +0.144862 0
+0.008979 +0.068984 0
+0.181777 -0.002654 0
-0.085447 +0.087056 0
+0.030257 +0.028140 0
-0.407073 +0.206280 0
-0.327330 +0.164703 0
-0.521263 +0.223390 0
-0.476199 +0.189176 0
-0.246202 +0.117247 0
-0.174301 +0.069243 0
-0.424705 +0.149279 0
-0.373563 +0.108242 0
-0.640783 +0.238247 0
-0.610600 +0.207901 0
-0.719665 +0.241330 0
-0.681458 +0.210672 0