# vtk DataFile Version 2.0
MyTitle
ASCII
DATASET UNSTRUCTURED_GRID
POINTS 2165 double
2.000000 -1.000000 0.000000
2.000000 1.000000 0.000000
-2.000000 1.000000 0.000000
-2.000000 -1.000000 0.000000
2.000000 -0.888889 0.000000
2.000000 -0.777778 0.000000
2.000000 -0.666667 0.000000
2.000000 -0.555556 0.000000
2.000000 -0.444444 0.000000
2.000000 -0.333333 0.000000
2.000000 -0.222222 0.000000
2.000000 -0.111111 0.000000
2.000000 -0.000000 0.000000
2.000000 0.111111 0.000000
2.000000 0.222222 0.000000
2.000000 0.333333 0.000000
2.000000 0.444444 0.000000
2.000000 0.555556 0.000000
2.000000 0.666667 0.000000
2.000000 0.777778 0.000000
2.000000 0.888889 0.000000
2.000000 -0.944444 0.000000
2.000000 -0.833333 0.000000
2.000000 -0.722222 0.000000
2.000000 -0.611111 0.000000
2.000000 -0.500000 0.000000
2.000000 -0.388889 0.000000
2.000000 -0.277778 0.000000
2.000000 -0.166667 0.000000
2.000000 -0.055556 0.000000
2.000000 0.055556 0.000000
2.000000 0.166667 0.000000
2.000000 0.277778 0.000000
2.000000 0.388889 0.000000
2.000000 0.500000 0.000000
2.000000 0.611111 0.000000
2.000000 0.722222 0.000000
2.000000 0.833333 0.000000
2.000000 0.944444 0.000000
1.894737 1.000000 0.000000
1.789474 1.000000 0.000000
1.684211 1.000000 0.000000
1.578947 1.000000 0.000000
1.473684 1.000000 0.000000
1.368421 1.000000 0.000000
1.263158 1.000000 0.000000
1.157895 1.000000 0.000000
1.052632 1.000000 0.000000
0.947368 1.000000 0.000000
0.842105 1.000000 0.000000
0.736842 1.000000 0.000000
0.631579 1.000000 0.000000
0.526316 1.000000 0.000000
0.421053 1.000000 0.000000
0.315789 1.000000 0.000000
0.210526 1.000000 0.000000
0.105263 1.000000 0.000000
0.000000 1.000000 0.000000
-0.105263 1.000000 0.000000
-0.210526 1.000000 0.000000
-0.315789 1.000000 0.000000
-0.421053 1.000000 0.000000
-0.526316 1.000000 0.000000
-0.631579 1.000000 0.000000
-0.736842 1.000000 0.000000
-0.842105 1.000000 0.000000
-0.947368 1.000000 0.000000
-1.052632 1.000000 0.000000
-1.157895 1.000000 0.000000
-1.263158 1.000000 0.000000
-1.368421 1.000000 0.000000
-1.473684 1.000000 0.000000
-1.578947 1.000000 0.000000
-1.684211 1.000000 0.000000
-1.789474 1.000000 0.000000
-1.894737 1.000000 0.000000
1.947368 1.000000 0.000000
1.842105 1.000000 0.000000
1.736842 1.000000 0.000000
1.631579 1.000000 0.000000
1.526316 1.000000 0.000000
1.421053 1.000000 0.000000
1.315789 1.000000 0.000000
1.210526 1.000000 0.000000
1.105263 1.000000 0.000000
1.000000 1.000000 0.000000
0.894737 1.000000 0.000000
0.789474 1.000000 0.000000
0.684211 1.000000 0.000000
0.578947 1.000000 0.000000
0.473684 1.000000 0.000000
0.368421 1.000000 0.000000
0.263158 1.000000 0.000000
0.157895 1.000000 0.000000
0.052632 1.000000 0.000000
-0.052632 1.000000 0.000000
-0.157895 1.000000 0.000000
-0.263158 1.000000 0.000000
-0.368421 1.000000 0.000000
-0.473684 1.000000 0.000000
-0.578947 1.000000 0.000000
-0.684211 1.000000 0.000000
-0.789474 1.000000 0.000000
-0.894737 1.000000 0.000000
-1.000000 1.000000 0.000000
-1.105263 1.000000 0.000000
-1.210526 1.000000 0.000000
-1.315789 1.000000 0.000000
-1.421053 1.000000 0.000000
-1.526316 1.000000 0.000000
-1.631579 1.000000 0.000000
-1.736842 1.000000 0.000000
-1.842105 1.000000 0.000000
-1.947368 1.000000 0.000000
-2.000000 0.888889 0.000000
-2.000000 0.777778 0.000000
-2.000000 0.666667 0.000000
-2.000000 0.555556 0.000000
-2.000000 0.444444 0.000000
-2.000000 0.333333 0.000000
-2.000000 0.222222 0.000000
-2.000000 0.111111 0.000000
-2.000000 0.000000 0.000000
-2.000000 -0.111111 0.000000
-2.000000 -0.222222 0.000000
-2.000000 -0.333333 0.000000
-2.000000 -0.444444 0.000000
-2.000000 -0.555556 0.000000
-2.000000 -0.666667 0.000000
-2.000000 -0.777778 0.000000
-2.000000 -0.888889 0.000000
-2.000000 0.944444 0.000000
-2.000000 0.833333 0.000000
-2.000000 0.722222 0.000000
-2.000000 0.611111 0.000000
-2.000000 0.500000 0.000000
-2.000000 0.388889 0.000000
-2.000000 0.277778 0.000000
-2.000000 0.166667 0.000000
-2.000000 0.055556 0.000000
-2.000000 -0.055556 0.000000
-2.000000 -0.166667 0.000000
-2.000000 -0.277778 0.000000
-2.000000 -0.388889 0.000000
-2.000000 -0.500000 0.000000
-2.000000 -0.611111 0.000000
-2.000000 -0.722222 0.000000
-2.000000 -0.833333 0.000000
-2.000000 -0.944444 0.000000
-1.894737 -1.000000 0.000000
-1.789474 -1.000000 0.000000
-1.684211 -1.000000 0.000000
-1.578947 -1.000000 0.000000
-1.473684 -1.000000 0.000000
-1.368421 -1.000000 0.000000
-1.263158 -1.000000 0.000000
-1.157895 -1.000000 0.000000
-1.052632 -1.000000 0.000000
-0.947368 -1.000000 0.000000
-0.842105 -1.000000 0.000000
-0.736842 -1.000000 0.000000
-0.631579 -1.000000 0.000000
-0.526316 -1.000000 0.000000
-0.421053 -1.000000 0.000000
-0.315789 -1.000000 0.000000
-0.210526 -1.000000 0.000000
-0.105263 -1.000000 0.000000
-0.000000 -1.000000 0.000000
0.105263 -1.000000 0.000000
0.210526 -1.000000 0.000000
0.315789 -1.000000 0.000000
0.421053 -1.000000 0.000000
0.526316 -1.000000 0.000000
0.631579 -1.000000 0.000000
0.736842 -1.000000 0.000000
0.842105 -1.000000 0.000000
0.947368 -1.000000 0.000000
1.052632 -1.000000 0.000000
1.157895 -1.000000 0.000000
1.263158 -1.000000 0.000000
1.368421 -1.000000 0.000000
1.473684 -1.000000 0.000000
1.578947 -1.000000 0.000000
1.684211 -1.000000 0.000000
1.789474 -1.000000 0.000000
1.894737 -1.000000 0.000000
-1.947368 -1.000000 0.000000
-1.842105 -1.000000 0.000000
-1.736842 -1.000000 0.000000
-1.631579 -1.000000 0.000000
-1.526316 -1.000000 0.000000
-1.421053 -1.000000 0.000000
-1.315789 -1.000000 0.000000
-1.210526 -1.000000 0.000000
-1.105263 -1.000000 0.000000
-1.000000 -1.000000 0.000000
-0.894737 -1.000000 0.000000
-0.789474 -1.000000 0.000000
-0.684211 -1.000000 0.000000
-0.578947 -1.000000 0.000000
-0.473684 -1.000000 0.000000
-0.368421 -1.000000 0.000000
-0.263158 -1.000000 0.000000
-0.157895 -1.000000 0.000000
-0.052632 -1.000000 0.000000
0.052632 -1.000000 0.000000
0.157895 -1.000000 0.000000
0.263158 -1.000000 0.000000
0.368421 -1.000000 0.000000
0.473684 -1.000000 0.000000
0.578947 -1.000000 0.000000
0.684211 -1.000000 0.000000
0.789474 -1.000000 0.000000
0.894737 -1.000000 0.000000
1.000000 -1.000000 0.000000
1.105263 -1.000000 0.000000
1.210526 -1.000000 0.000000
1.315789 -1.000000 0.000000
1.421053 -1.000000 0.000000
1.526316 -1.000000 0.000000
1.631579 -1.000000 0.000000
1.736842 -1.000000 0.000000
1.842105 -1.000000 0.000000
1.947368 -1.000000 0.000000
-1.789474 0.777778 0.000000
-1.578947 0.777778 0.000000
-1.368421 0.777778 0.000000
-1.157895 0.777778 0.000000
-0.947368 0.777778 0.000000
-0.736842 0.777778 0.000000
-0.526316 0.777778 0.000000
-0.315789 0.777778 0.000000
-0.105263 0.777778 0.000000
0.105263 0.777778 0.000000
0.315789 0.777778 0.000000
0.526316 0.777778 0.000000
0.736842 0.777778 0.000000
0.947368 0.777778 0.000000
1.157895 0.777778 0.000000
1.368421 0.777778 0.000000
1.578947 0.777778 0.000000
1.789474 0.777778 0.000000
-1.789474 0.555556 0.000000
-1.578947 0.555556 0.000000
-1.368421 0.555556 0.000000
-1.157895 0.555556 0.000000
-0.947368 0.555556 0.000000
-0.736842 0.555556 0.000000
-0.526316 0.555556 0.000000
-0.315789 0.555556 0.000000
-0.105263 0.555556 0.000000
0.105263 0.555556 0.000000
0.315789 0.555556 0.000000
0.526316 0.555556 0.000000
0.736842 0.555556 0.000000
0.947368 0.555556 0.000000
1.157895 0.555556 0.000000
1.368421 0.555556 0.000000
1.578947 0.555556 0.000000
1.789474 0.555556 0.000000
-1.789474 0.333333 0.000000
-1.578947 0.333333 0.000000
-1.368421 0.333333 0.000000
-1.157895 0.333333 0.000000
-0.947368 0.333333 0.000000
-0.736842 0.333333 0.000000
-0.526316 0.333333 0.000000
-0.315789 0.333333 0.000000
-0.105263 0.333333 0.000000
0.105263 0.333333 0.000000
0.315789 0.333333 0.000000
0.526316 0.333333 0.000000
0.736842 0.333333 0.000000
0.947368 0.333333 0.000000
1.157895 0.333333 0.000000
1.368421 0.333333 0.000000
1.578947 0.333333 0.000000
1.789474 0.333333 0.000000
-1.789474 0.111111 0.000000
-1.578947 0.111111 0.000000
-1.368421 0.111111 0.000000
-1.157895 0.111111 0.000000
-0.947368 0.111111 0.000000
-0.736842 0.111111 0.000000
-0.526316 0.111111 0.000000
-0.315789 0.111111 0.000000
-0.105263 0.111111 0.000000
0.105263 0.111111 0.000000
0.315789 0.111111 0.000000
0.526316 0.111111 0.000000
0.736842 0.111111 0.000000
0.947368 0.111111 0.000000
1.157895 0.111111 0.000000
1.368421 0.111111 0.000000
1.578947 0.111111 0.000000
1.789474 0.111111 0.000000
-1.789474 -0.111111 0.000000
-1.578947 -0.111111 0.000000
-1.368421 -0.111111 0.000000
-1.157895 -0.111111 0.000000
-0.947368 -0.111111 0.000000
-0.736842 -0.111111 0.000000
-0.526316 -0.111111 0.000000
-0.315789 -0.111111 0.000000
-0.105263 -0.111111 0.000000
0.105263 -0.111111 0.000000
0.315789 -0.111111 0.000000
0.526316 -0.111111 0.000000
0.736842 -0.111111 0.000000
0.947368 -0.111111 0.000000
1.157895 -0.111111 0.000000
1.368421 -0.111111 0.000000
1.578947 -0.111111 0.000000
1.789474 -0.111111 0.000000
-1.789474 -0.333333 0.000000
-1.578947 -0.333333 0.000000
-1.368421 -0.333333 0.000000
-1.157895 -0.333333 0.000000
-0.947368 -0.333333 0.000000
-0.736842 -0.333333 0.000000
-0.526316 -0.333333 0.000000
-0.315789 -0.333333 0.000000
-0.105263 -0.333333 0.000000
0.105263 -0.333333 0.000000
0.315789 -0.333333 0.000000
0.526316 -0.333333 0.000000
0.736842 -0.333333 0.000000
0.947368 -0.333333 0.000000
1.157895 -0.333333 0.000000
1.368421 -0.333333 0.000000
1.578947 -0.333333 0.000000
1.789474 -0.333333 0.000000
-1.789474 -0.555556 0.000000
-1.578947 -0.555556 0.000000
-1.368421 -0.555556 0.000000
-1.157895 -0.555556 0.000000
-0.947368 -0.555556 0.000000
-0.736842 -0.555556 0.000000
-0.526316 -0.555556 0.000000
-0.315789 -0.555556 0.000000
-0.105263 -0.555556 0.000000
0.105263 -0.555556 0.000000
0.315789 -0.555556 0.000000
0.526316 -0.555556 0.000000
0.736842 -0.555556 0.000000
0.947368 -0.555556 0.000000
1.157895 -0.555556 0.000000
1.368421 -0.555556 0.000000
1.578947 -0.555556 0.000000
1.789474 -0.555556 0.000000
-1.789474 -0.777778 0.000000
-1.578947 -0.777778 0.000000
-1.368421 -0.777778 0.000000
-1.157895 -0.777778 0.000000
[...]
POINT_DATA 2165
VECTORS sol double
+0.000000 +0.000000 0
+0.000000 +0.000000 0
+0.000000 +0.000000 0
+0.000000 +0.000000 0
+0.000000 +0.000000 0
+0.000000 +0.000000 0
+0.000000 +0.000000 0
+0.000000 +0.000000 0
+0.000000 +0.000000 0
+0.000000 +0.000000 0
+0.000000 +0.000000 0
+0.000000 +0.000000 0
+0.000000 +0.000000 0
+0.000000 +0.000000 0
+0.000000 +0.000000 0
+0.000000 +0.000000 0
+0.000000 +0.000000 0
+0.000000 +0.000000 0
+0.000000 +0.000000 0
+0.000000 +0.000000 0
+0.000000 +0.000000 0
+0.000000 +0.000000 0
+0.000000 +0.000000 0
+0.000000 +0.000000 0
+0.000000 +0.000000 0
+0.000000 +0.000000 0
+0.000000 +0.000000 0
+0.000000 +0.000000 0
+0.000000 +0.000000 0
+0.000000 +0.000000 0
+0.000000 +0.000000 0
+0.000000 +0.000000 0
+0.000000 +0.000000 0
+0.000000 +0.000000 0
+0.000000 +0.000000 0
+0.000000 +0.000000 0
+0.000000 +0.000000 0
+0.000000 +0.000000 0
+0.000000 +0.000000 0
+0.000000 +0.000000 0
+0.000000 +0.000000 0
+0.000000 +0.000000 0
+0.000000 +0.000000 0
+0.000000 +0.000000 0
+0.000000 +0.000000 0
+0.000000 +0.000000 0
+0.000000 +0.000000 0
+0.000000 +0.000000 0
+0.000000 +0.000000 0
+0.000000 +0.000000 0
+0.000000 +0.000000 0
+0.000000 +0.000000 0
+0.000000 +0.000000 0
+0.000000 +0.000000 0
+0.000000 +0.000000 0
+0.000000 +0.000000 0
+0.000000 +0.000000 0
+0.000000 +0.000000 0
+0.000000 +0.000000 0
+0.000000 +0.000000 0
+0.000000 +0.000000 0
+0.000000 +0.000000 0
+0.000000 +0.000000 0
+0.000000 +0.000000 0
+0.000000 +0.000000 0
+0.000000 +0.000000 0
+0.000000 +0.000000 0
+0.000000 +0.000000 0
+0.000000 +0.000000 0
+0.000000 +0.000000 0
+0.000000 +0.000000 0
+0.000000 +0.000000 0
+0.000000 +0.000000 0
+0.000000 +0.000000 0
+0.000000 +0.000000 0
+0.000000 +0.000000 0
+0.000000 +0.000000 0
+0.000000 +0.000000 0
+0.000000 +0.000000 0
+0.000000 +0.000000 0
+0.000000 +0.000000 0
+0.000000 +0.000000 0
+0.000000 +0.000000 0
+0.000000 +0.000000 0
+0.000000 +0.000000 0
+0.000000 +0.000000 0
+0.000000 +0.000000 0
+0.000000 +0.000000 0
+0.000000 +0.000000 0
+0.000000 +0.000000 0
+0.000000 +0.000000 0
+0.000000 +0.000000 0
+0.000000 +0.000000 0
+0.000000 +0.000000 0
+0.000000 +0.000000 0
+0.000000 +0.000000 0
+0.000000 +0.000000 0
+0.000000 +0.000000 0
+0.000000 +0.000000 0
+0.000000 +0.000000 0
+0.000000 +0.000000 0
+0.000000 +0.000000 0
+0.000000 +0.000000 0
+0.000000 +0.000000 0
+0.000000 +0.000000 0
+0.000000 +0.000000 0
+0.000000 +0.000000 0
+0.000000 +0.000000 0
+0.000000 +0.000000 0
+0.000000 +0.000000 0
+0.000000 +0.000000 0
+0.000000 +0.000000 0
+0.000000 +0.000000 0
+0.000000 +0.000000 0
+0.000000 +0.000000 0
+0.000000 +0.000000 0
+0.000000 +0.000000 0
+0.000000 +0.000000 0
+0.000000 +0.000000 0
+0.000000 +0.000000 0
+0.000000 +0.000000 0
+0.000000 +0.000000 0
+0.000000 +0.000000 0
+0.000000 +0.000000 0
+0.000000 +0.000000 0
+0.000000 +0.000000 0
+0.000000 +0.000000 0
+0.000000 +0.000000 0
+0.000000 +0.000000 0
+0.000000 +0.000000 0
+0.000000 +0.000000 0
+0.000000 +0.000000 0
+0.000000 +0.000000 0
+0.000000 +0.000000 0
+0.000000 +0.000000 0
+0.000000 +0.000000 0
+0.000000 +0.000000 0
+0.000000 +0.000000 0
+0.000000 +0.000000 0
+0.000000 +0.000000 0
+0.000000 +0.000000 0
+0.000000 +0.000000 0
+0.000000 +0.000000 0
+0.000000 +0.000000 0
+0.000000 +0.000000 0
+0.000000 +0.000000 0
+0.000000 +0.000000 0
+0.000000 +0.000000 0
+0.000000 +0.000000 0
+0.000000 +0.000000 0
+0.000000 +0.000000 0
+0.000000 +0.000000 0
+0.000000 +0.000000 0
+0.000000 +0.000000 0
+0.000000 +0.000000 0
+0.000000 +0.000000 0
+0.000000 +0.000000 0
+0.000000 +0.000000 0
+0.000000 +0.000000 0
+0.000000 +0.000000 0
+0.000000 +0.000000 0
+0.000000 +0.000000 0
+0.000000 +0.000000 0
+0.000000 +0.000000 0
+0.000000 +0.000000 0
+0.000000 +0.000000 0
+0.000000 +0.000000 0
+0.000000 +0.000000 0
+0.000000 +0.000000 0
+0.000000 +0.000000 0
+0.000000 +0.000000 0
+0.000000 +0.000000 0
+0.000000 +0.000000 0
+0.000000 +0.000000 0
+0.000000 +0.000000 0
+0.000000 +0.000000 0
+0.000000 +0.000000 0
+0.000000 +0.000000 0
+0.000000 +0.000000 0
+0.000000 +0.000000 0
+0.000000 +0.000000 0
+0.000000 +0.000000 0
+0.000000 +0.000000 0
+0.000000 +0.000000 0
+0.000000 +0.000000 0
+0.000000 +0.000000 0
+0.000000 +0.000000 0
+0.000000 +0.000000 0
+0.000000 +0.000000 0
+0.000000 +0.000000 0
+0.000000 +0.000000 0
+0.000000 +0.000000 0
+0.000000 +0.000000 0
+0.000000 +0.000000 0
+0.000000 +0.000000 0
+0.000000 +0.000000 0
+0.000000 +0.000000 0
+0.000000 +0.000000 0
+0.000000 +0.000000 0
+0.000000 +0.000000 0
+0.000000 +0.000000 0
+0.000000 +0.000000 0
+0.000000 +0.000000 0
+0.000000 +0.000000 0
+0.000000 +0.000000 0
+0.000000 +0.000000 0
+0.000000 +0.000000 0
+0.000000 +0.000000 0
+0.000000 +0.000000 0
+0.000000 +0.000000 0
+0.000000 +0.000000 0
+0.000000 +0.000000 0
+0.000000 +0.000000 0
+0.000000 +0.000000 0
+0.000000 +0.000000 0
+0.000000 +0.000000 0
+0.000000 +0.000000 0
+0.000000 +0.000000 0
+0.000000 +0.000000 0
+0.000000 +0.000000 0
+0.000000 +0.000000 0
+0.000000 +0.000000 0
+0.000000 +0.000000 0
+0.000000 +0.000000 0
-0.018986 +0.034987 0
-0.037455 +0.069019 0
-0.054902 +0.101168 0
-0.070851 +0.130558 0
-0.084868 +0.156387 0
-0.096570 +0.177950 0
-0.105637 +0.194659 0
-0.111823 +0.206058 0
-0.114959 +0.211836 0
-0.114959 +0.211836 0
-0.111823 +0.206058 0
-0.105637 +0.194659 0
-0.096570 +0.177950 0
-0.084868 +0.156387 0
-0.070851 +0.130558 0
-0.054902 +0.101168 0
-0.037455 +0.069019 0
-0.018986 +0.034987 0
-0.035683 +0.065753 0
-0.070392 +0.129713 0
-0.103182 +0.190134 0
-0.133157 +0.245369 0
-0.159500 +0.293911 0
-0.181492 +0.334436 0
-0.198533 +0.365838 0
-0.210159 +0.387262 0
-0.216052 +0.398121 0
-0.216052 +0.398121 0
-0.210159 +0.387262 0
-0.198533 +0.365838 0
-0.181492 +0.334436 0
-0.159500 +0.293911 0
-0.133157 +0.245369 0
-0.103182 +0.190134 0
-0.070392 +0.129713 0
-0.035683 +0.065753 0
-0.048075 +0.088589 0
-0.094840 +0.174762 0
-0.139017 +0.256167 0
-0.179402 +0.330585 0
-0.214893 +0.395985 0
-0.244523 +0.450584 0
-0.267483 +0.492893 0
-0.283146 +0.521756 0
-0.291086 +0.536387 0
-0.291086 +0.536387 0
-0.283146 +0.521756 0
-0.267483 +0.492893 0
-0.244523 +0.450584 0
-0.214893 +0.395985 0
-0.179402 +0.330585 0
-0.139017 +0.256167 0
-0.094840 +0.174762 0
-0.048075 +0.088589 0
-0.054669 +0.100740 0
-0.107848 +0.198732 0
-0.158084 +0.291302 0
-0.204008 +0.375927 0
-0.244368 +0.450298 0
-0.278061 +0.512386 0
-0.304170 +0.560497 0
-0.321982 +0.593319 0
-0.331011 +0.609957 0
-0.331011 +0.609957 0
-0.321982 +0.593319 0
-0.304170 +0.560497 0
-0.278061 +0.512386 0
-0.244368 +0.450298 0
-0.204008 +0.375927 0
-0.158084 +0.291302 0
-0.107848 +0.198732 0
-0.054669 +0.100740 0
-0.054669 +0.100740 0
-0.107848 +0.198732 0
-0.158084 +0.291302 0
-0.204008 +0.375927 0
-0.244368 +0.450298 0
-0.278061 +0.512386 0
-0.304170 +0.560497 0
-0.321982 +0.593319 0
-0.331011 +0.609957 0
-0.331011 +0.609957 0
-0.321982 +0.593319 0
-0.304170 +0.560497 0
-0.278061 +0.512386 0
-0.244368 +0.450298 0
-0.204008 +0.375927 0
-0.158084 +0.291302 0
-0.107848 +0.198732 0
-0.054669 +0.100740 0
-0.048075 +0.088589 0
-0.094840 +0.174762 0
-0.139017 +0.256167 0
-0.179402 +0.330585 0
-0.214893 +0.395985 0
-0.244523 +0.450584 0
-0.267483 +0.492893 0
-0.283146 +0.521756 0
-0.291086 +0.536387 0
-0.291086 +0.536387 0
-0.283146 +0.521756 0
-0.267483 +0.492893 0
-0.244523 +0.450584 0
-0.214893 +0.395985 0
-0.179402 +0.330585 0
-0.139017 +0.256167 0
-0.094840 +0.174762 0
-0.048075 +0.088589 0
-0.035683 +0.065753 0
-0.070392 +0.129713 0
-0.103182 +0.190134 0
-0.133157 +0.245369 0
-0.159500 +0.293911 0
-0.181492 +0.334436 0
-0.198533 +0.365838 0
-0.210159 +0.387262 0
-0.216052 +0.398121 0
-0.216052 +0.398121 0
-0.210159 +0.387262 0
-0.198533 +0.365838 0
-0.181492 +0.334436 0
-0.159500 +0.293911 0
-0.133157 +0.245369 0
-0.103182 +0.190134 0
-0.070392 +0.129713 0
-0.035683 +0.065753 0
-0.018986 +0.034987 0
-0.037455 +0.069019 0
-0.054902 +0.101168 0
-0.070851 +0.130558 0
-0.084868 +0.156387 0
-0.096570 +0.177950 0
-0.105637 +0.194659 0
-0.111823 +0.206058 0
-0.114959 +0.211836 0
-0.114959 +0.211836 0
-0.111823 +0.206058 0
-0.105637 +0.194659 0
-0.096570 +0.177950 0
-0.084868 +0.156387 0
-0.070851 +0.130558 0
-0.054902 +0.101168 0
-0.037455 +0.069019 0
-0.018986 +0.034987 0
-0.009526 +0.017553 0
-0.009640 +0.017763 0
-0.004836 +0.008912 0
-0.028317 +0.052181 0
-0.019016 +0.035042 0
-0.014377 +0.026493 0
-0.046337 +0.085385 0
-0.027874 +0.051364 0
-0.023526 +0.043351 0
-0.063092 +0.116260 0
-0.035972 +0.066286 0
-0.032033 +0.059027 0
-0.078126 +0.143964 0
-0.043089 +0.079400 0
-0.039666 +0.073093 0
-0.091030 +0.167741 0
-0.049030 +0.090347 0
-0.046217 +0.085164 0
-0.101450 +0.186943 0
-0.053633 +0.098831 0
-0.051507 +0.094913 0
-0.109103 +0.201045 0
-0.056774 +0.104618 0
-0.055393 +0.102073 0
-0.113780 +0.209663 0
-0.058366 +0.107552 0
-0.057767 +0.106449 0
-0.115353 +0.212562 0
-0.058366 +0.107552 0
-0.058566 +0.107921 0
-0.113780 +0.209663 0
-0.056774 +0.104618 0
-0.057767 +0.106449 0
-0.109103 +0.201045 0
-0.053633 +0.098831 0
-0.055393 +0.102073 0
-0.101450 +0.186943 0
-0.049030 +0.090347 0
-0.051507 +0.094913 0
-0.091030 +0.167741 0
-0.043089 +0.079400 0
-0.046217 +0.085164 0
-0.078126 +0.143964 0
-0.035972 +0.066286 0
-0.039666 +0.073093 0
-0.063092 +0.116260 0
-0.027874 +0.051364 0
-0.032033 +0.059027 0
-0.046337 +0.085385 0
-0.019016 +0.035042 0
-0.023526 +0.043351 0
-0.028317 +0.052181 0
-0.009640 +0.017763 0
-0.014377 +0.026493 0
-0.009526 +0.017553 0
-0.004836 +0.008912 0
-0.017903 +0.032989 0
-0.027756 +0.051147 0
-0.013926 +0.025661 0
-0.053219 +0.098068 0
-0.054756 +0.100899 0
-0.041397 +0.076283 0
-0.087085 +0.160472 0
-0.080261 +0.147898 0
-0.067740 +0.124825 0
-0.118574 +0.218498 0
-0.103578 +0.190863 0
-0.092235 +0.169961 0
-0.146830 +0.270564 0
-0.124069 +0.228622 0
-0.114213 +0.210462 0
-0.171080 +0.315250 0
-0.141175 +0.260145 0
-0.133077 +0.245221 0
-0.190664 +0.351337 0
-0.154431 +0.284572 0
-0.148310 +0.273292 0
-0.205046 +0.377840 0
-0.163475 +0.301236 0
-0.159498 +0.293908 0
-0.213836 +0.394037 0
-0.168059 +0.309683 0
-0.166335 +0.306507 0
-0.216793 +0.399486 0
-0.168059 +0.309683 0
-0.168635 +0.310745 0
-0.213836 +0.394037 0
-0.163475 +0.301236 0
-0.166335 +0.306507 0
-0.205046 +0.377840 0
-0.154431 +0.284572 0
-0.159498 +0.293908 0
-0.190664 +0.351337 0
-0.141175 +0.260145 0
-0.148310 +0.273292 0
-0.171080 +0.315250 0
-0.124069 +0.228622 0
-0.133077 +0.245221 0
-0.146830 +0.270564 0
-0.103578 +0.190863 0
-0.114213 +0.210462 0
-0.118574 +0.218498 0
-0.080261 +0.147898 0
-0.092235 +0.169961 0
-0.087085 +0.160472 0
-0.054756 +0.100899 0
-0.067740 +0.124825 0
-0.053219 +0.098068 0
-0.027756 +0.051147 0
-0.041397 +0.076283 0
-0.017903 +0.032989 0
-0.013926 +0.025661 0
-0.024120 +0.044446 0
-0.042525 +0.078362 0
-0.021335 +0.039315 0
-0.071702 +0.132127 0
-0.083891 +0.154586 0
-0.063425 +0.116873 0
-0.117329 +0.216203 0
-0.122967 +0.226593 0
-0.103783 +0.191243 0
-0.159755 +0.294382 0
-0.158690 +0.292420 0
-0.141311 +0.260396 0
-0.197823 +0.364530 0
-0.190084 +0.350270 0
-0.174985 +0.322446 0
-0.230495 +0.424736 0
-0.216293 +0.398565 0
-0.203885 +0.375701 0
-0.256880 +0.473355 0
-0.236602 +0.435989 0
-0.227224 +0.418707 0
-0.276258 +0.509063 0
-0.250458 +0.461520 0
-0.244365 +0.450293 0
-0.288100 +0.530885 0
-0.257481 +0.474462 0
-0.254840 +0.469595 0
-0.292084 +0.538226 0
-0.257481 +0.474462 0
-0.258364 +0.476089 0
-0.288100 +0.530885 0
-0.250458 +0.461520 0
-0.254840 +0.469595 0
-0.276258 +0.509063 0
-0.236602 +0.435989 0
-0.244365 +0.450293 0
-0.256880 +0.473355 0
-0.216293 +0.398565 0
-0.227224 +0.418707 0
-0.230495 +0.424736 0
-0.190084 +0.350270 0
-0.203885 +0.375701 0
-0.197823 +0.364530 0
-0.158690 +0.292420 0
-0.174985 +0.322446 0
-0.159755 +0.294382 0
-0.122967 +0.226593 0
-0.141311 +0.260396 0
-0.117329 +0.216203 0
-0.083891 +0.154586 0
-0.103783 +0.191243 0
-0.071702 +0.132127 0
-0.042525 +0.078362 0
-0.063425 +0.116873 0
-0.024120 +0.044446 0
-0.021335 +0.039315 0
-0.027428 +0.050542 0
-0.052165 +0.096125 0
-0.026172 +0.048227 0
-0.081537 +0.150249 0
-0.102907 +0.189627 0
-0.077802 +0.143366 0
-0.133421 +0.245857 0
-0.150842 +0.277958 0
-0.127309 +0.234594 0
-0.181667 +0.334758 0
-0.194662 +0.358706 0
-0.173344 +0.319423 0
-0.224956 +0.414529 0
-0.233173 +0.429669 0
-0.214651 +0.395539 0
-0.262110 +0.482992 0
-0.265323 +0.488913 0
-0.250102 +0.460865 0
-0.292113 +0.538280 0
-0.290236 +0.534820 0
-0.278731 +0.513621 0
-0.314149 +0.578885 0
-0.307232 +0.566138 0
-0.299758 +0.552366 0
-0.327616 +0.603700 0
-0.315847 +0.582014 0
-0.312607 +0.576044 0
-0.332146 +0.612048 0
-0.315847 +0.582014 0
-0.316930 +0.584009 0
-0.327616 +0.603700 0
-0.307232 +0.566138 0
-0.312607 +0.576044 0
-0.314149 +0.578885 0
-0.290236 +0.534820 0
-0.299758 +0.552366 0
-0.292113 +0.538280 0
-0.265323 +0.488913 0
-0.278731 +0.513621 0
-0.262110 +0.482992 0
-0.233173 +0.429669 0
-0.250102 +0.460865 0
-0.224956 +0.414529 0
-0.194662 +0.358706 0
-0.214651 +0.395539 0
-0.181667 +0.334758 0
-0.150842 +0.277958 0
-0.173344 +0.319423 0
-0.133421 +0.245857 0
-0.102907 +0.189627 0
-0.127309 +0.234594 0
-0.081537 +0.150249 0
-0.052165 +0.096125 0
-0.077802 +0.143366 0
-0.027428 +0.050542 0
-0.026172 +0.048227 0
-0.027428 +0.050542 0
-0.055513 +0.102294 0
-0.027852 +0.051322 0
-0.081537 +0.150249 0
-0.109511 +0.201797 0
-0.082795 +0.152567 0
-0.133421 +0.245857 0
-0.160523 +0.295796 0
-0.135480 +0.249649 0
-0.181667 +0.334758 0
-0.207155 +0.381727 0
-0.184469 +0.339922 0
-0.224956 +0.414529 0
-0.248137 +0.457245 0
-0.228427 +0.420923 0
-0.262110 +0.482992 0
-0.282351 +0.520290 0
-0.266153 +0.490442 0
-0.292113 +0.538280 0
-0.308863 +0.569143 0
-0.296620 +0.546584 0
-0.314149 +0.578885 0
-0.326949 +0.602472 0
-0.318995 +0.587815 0
-0.327616 +0.603700 0
-0.336118 +0.619367 0
-0.332670 +0.613013 0
-0.332146 +0.612048 0
-0.336118 +0.619367 0
-0.337270 +0.621489 0
-0.327616 +0.603700 0
-0.326949 +0.602472 0
-0.332670 +0.613013 0
-0.314149 +0.578885 0
-0.308863 +0.569143 0
-0.318995 +0.587815 0
-0.292113 +0.538280 0
-0.282351 +0.520290 0
-0.296620 +0.546584 0
-0.262110 +0.482992 0
-0.248137 +0.457245 0
-0.266153 +0.490442 0
-0.224956 +0.414529 0
-0.207155 +0.381727 0
-0.228427 +0.420923 0
-0.181667 +0.334758 0
-0.160523 +0.295796 0
-0.184469 +0.339922 0
-0.133421 +0.245857 0
-0.109511 +0.201797 0
-0.135480 +0.249649 0
-0.081537 +0.150249 0
-0.055513 +0.102294 0
-0.082795 +0.152567 0
-0.027428 +0.050542 0
-0.027852 +0.051322 0
-0.024120 +0.044446 0
-0.052165 +0.096125 0
-0.026172 +0.048227 0
-0.071702 +0.132127 0
-0.102907 +0.189627 0
-0.077802 +0.143366 0
-0.117329 +0.216203 0
-0.150842 +0.277958 0
-0.127309 +0.234594 0
-0.159755 +0.294382 0
-0.194662 +0.358706 0
-0.173344 +0.319423 0
-0.197823 +0.364530 0
-0.233173 +0.429669 0
-0.214651 +0.395539 0
-0.230495 +0.424736 0
-0.265323 +0.488913 0
-0.250102 +0.460865 0
-0.256880 +0.473355 0
-0.290236 +0.534820 0
-0.278731 +0.513621 0
-0.276258 +0.509063 0
-0.307232 +0.566138 0
-0.299758 +0.552366 0
-0.288100 +0.530885 0
-0.315847 +0.582014 0
-0.312607 +0.576044 0
-0.292084 +0.538226 0
-0.315847 +0.582014 0
-0.316930 +0.584009 0
-0.288100 +0.530885 0
-0.307232 +0.566138 0
-0.312607 +0.576044 0
-0.276258 +0.509063 0
-0.290236 +0.534820 0
-0.299758 +0.552366 0
-0.256880 +0.473355 0
-0.265323 +0.488913 0
-0.278731 +0.513621 0
-0.230495 +0.424736 0
-0.233173 +0.429669 0
-0.250102 +0.460865 0
-0.197823 +0.364530 0
-0.194662 +0.358706 0
-0.214651 +0.395539 0
-0.159755 +0.294382 0
-0.150842 +0.277958 0
-0.173344 +0.319423 0
-0.117329 +0.216203 0
-0.102907 +0.189627 0
-0.127309 +0.234594 0
-0.071702 +0.132127 0
-0.052165 +0.096125 0
-0.077802 +0.143366 0
-0.024120 +0.044446 0
-0.026172 +0.048227 0
-0.017903 +0.032989 0
-0.042525 +0.078362 0
-0.021335 +0.039315 0
-0.053219 +0.098068 0
-0.083891 +0.154586 0
-0.063425 +0.116873 0
-0.087085 +0.160472 0
-0.122967 +0.226593 0
-0.103783 +0.191243 0
-0.118574 +0.218498 0
-0.158690 +0.292420 0
-0.141311 +0.260396 0
-0.146830 +0.270564 0
-0.190084 +0.350270 0
-0.174985 +0.322446 0
-0.171080 +0.315250 0
-0.216293 +0.398565 0
-0.203885 +0.375701 0
-0.190664 +0.351337 0
-0.236602 +0.435989 0
-0.227224 +0.418707 0
-0.205046 +0.377840 0
-0.250458 +0.461520 0
-0.244365 +0.450293 0
-0.213836 +0.394037 0
-0.257481 +0.474462 0
-0.254840 +0.469595 0
-0.216793 +0.399486 0
-0.257481 +0.474462 0
-0.258364 +0.476089 0
-0.213836 +0.394037 0
-0.250458 +0.461520 0
-0.254840 +0.469595 0
-0.205046 +0.377840 0
-0.236602 +0.435989 0
-0.244365 +0.450293 0
-0.190664 +0.351337 0
-0.216293 +0.398565 0
-0.227224 +0.418707 0
-0.171080 +0.315250 0
-0.190084 +0.350270 0
-0.203885 +0.375701 0
-0.146830 +0.270564 0
-0.158690 +0.292420 0
-0.174985 +0.322446 0
-0.118574 +0.218498 0
-0.122967 +0.226593 0
-0.141311 +0.260396 0
-0.087085 +0.160472 0
-0.083891 +0.154586 0
-0.103783 +0.191243 0
-0.053219 +0.098068 0
-0.042525 +0.078362 0
-0.063425 +0.116873 0
-0.017903 +0.032989 0
-0.021335 +0.039315 0
-0.009526 +0.017553 0
-0.027756 +0.051147 0
-0.013926 +0.025661 0
-0.028317 +0.052181 0
-0.054756 +0.100899 0
-0.041397 +0.076283 0
-0.046337 +0.085385 0
-0.080261 +0.147898 0
-0.067740 +0.124825 0
-0.063092 +0.116260 0
-0.103578 +0.190863 0
-0.092235 +0.169961 0
-0.078126 +0.143964 0
-0.124069 +0.228622 0
-0.114213 +0.210462 0
-0.091030 +0.167741 0
-0.141175 +0.260145 0
-0.133077 +0.245221 0
-0.101450 +0.186943 0
-0.154431 +0.284572 0
-0.148310 +0.273292 0
-0.109103 +0.201045 0
-0.163475 +0.301236 0
-0.159498 +0.293908 0
-0.113780 +0.209663 0
-0.168059 +0.309683 0
-0.166335 +0.306507 0
-0.115353 +0.212562 0
-0.168059 +0.309683 0
-0.168635 +0.310745 0
-0.113780 +0.209663 0
-0.163475 +0.301236 0
-0.166335 +0.306507 0
-0.109103 +0.201045 0
-0.154431 +0.284572 0
-0.159498 +0.293908 0
-0.101450 +0.186943 0
-0.141175 +0.260145 0
-0.148310 +0.273292 0
-0.091030 +0.167741 0
-0.124069 +0.228622 0
-0.133077 +0.245221 0
-0.078126 +0.143964 0
-0.103578 +0.190863 0
-0.114213 +0.210462 0
-0.063092 +0.116260 0
-0.080261 +0.147898 0
-0.092235 +0.169961 0
-0.046337 +0.085385 0
-0.054756 +0.100899 0
-0.067740 +0.124825 0
-0.028317 +0.052181 0
-0.027756 +0.051147 0
-0.041397 +0.076283 0
-0.009526 +0.017553 0
-0.013926 +0.025661 0
-0.009640 +0.017763 0
-0.004836 +0.008912 0
-0.019016 +0.035042 0
-0.014377 +0.026493 0
-0.027874 +0.051364 0
-0.023526 +0.043351 0
-0.035972 +0.066286 0
-0.032033 +0.059027 0
-0.043089 +0.079400 0
-0.039666 +0.073093 0
-0.049030 +0.090347 0
-0.046217 +0.085164 0
-0.053633 +0.098831 0
-0.051507 +0.094913 0
-0.056774 +0.104618 0
-0.055393 +0.102073 0
-0.058366 +0.107552 0
-0.057767 +0.106449 0
-0.058366 +0.107552 0
-0.058566 +0.107921 0
-0.056774 +0.104618 0
-0.057767 +0.106449 0
-0.053633 +0.098831 0
-0.055393 +0.102073 0
-0.049030 +0.090347 0
-0.051507 +0.094913 0
-0.043089 +0.079400 0
-0.046217 +0.085164 0
-0.035972 +0.066286 0
-0.039666 +0.073093 0
-0.027874 +0.051364 0
-0.032033 +0.059027 0
-0.019016 +0.035042 0
-0.023526 +0.043351 0
-0.009640 +0.017763 0
-0.014377 +0.026493 0
-0.004836 +0.008912 0
-0.002420 +0.004460 0
-0.002427 +0.004473 0
-0.004767 +0.008784 0
-0.007209 +0.013283 0
-0.014268 +0.026292 0
-0.014368 +0.026476 0
-0.007244 +0.013349 0
-0.004838 +0.008916 0
-0.012019 +0.022147 0
-0.007216 +0.013297 0
-0.023672 +0.043621 0
-0.021429 +0.039487 0
-0.032914 +0.060652 0
-0.028344 +0.052229 0
-0.016711 +0.030794 0
-0.009545 +0.017588 0
-0.021289 +0.039230 0
-0.011808 +0.021758 0
-0.041932 +0.077268 0
-0.035065 +0.064614 0
-0.050663 +0.093357 0
-0.041546 +0.076558 0
-0.025722 +0.047398 0
-0.013990 +0.025780 0
-0.029979 +0.055243 0
-0.016078 +0.029626 0
-0.059048 +0.108807 0
-0.047744 +0.087979 0
-0.067029 +0.123515 0
-0.053616 +0.098798 0
-0.034032 +0.062710 0
-0.018055 +0.033270 0
-0.037851 +0.069749 0
-0.019909 +0.036686 0
-0.074553 +0.137379 0
-0.059121 +0.108943 0
-0.081567 +0.150304 0
-0.064223 +0.118344 0
-0.041413 +0.076311 0
-0.021627 +0.039852 0
-0.044691 +0.082353 0
-0.023197 +0.042745 0
-0.088024 +0.162203 0
-0.068886 +0.126936 0
-0.093880 +0.172994 0
-0.073078 +0.134661 0
-0.047664 +0.087831 0
-0.024609 +0.045346 0
-0.050312 +0.092710 0
-0.025852 +0.047638 0
-0.099095 +0.182603 0
-0.076771 +0.141466 0
-0.103632 +0.190964 0
-0.079940 +0.147305 0