# vtk DataFile Version 2.0
MyTitle
ASCII
DATASET UNSTRUCTURED_GRID
POINTS 1045 double
1.000000 -1.000000 0.000000
1.000000 1.000000 0.000000
-1.000000 1.000000 0.000000
-1.000000 -1.000000 0.000000
1.000000 -0.888889 0.000000
1.000000 -0.777778 0.000000
1.000000 -0.666667 0.000000
1.000000 -0.555556 0.000000
1.000000 -0.444444 0.000000
1.000000 -0.333333 0.000000
1.000000 -0.222222 0.000000
1.000000 -0.111111 0.000000
1.000000 -0.000000 0.000000
1.000000 0.111111 0.000000
1.000000 0.222222 0.000000
1.000000 0.333333 0.000000
1.000000 0.444444 0.000000
1.000000 0.555556 0.000000
1.000000 0.666667 0.000000
1.000000 0.777778 0.000000
1.000000 0.888889 0.000000
1.000000 -0.944444 0.000000
1.000000 -0.833333 0.000000
1.000000 -0.722222 0.000000
1.000000 -0.611111 0.000000
1.000000 -0.500000 0.000000
1.000000 -0.388889 0.000000
1.000000 -0.277778 0.000000
1.000000 -0.166667 0.000000
1.000000 -0.055556 0.000000
1.000000 0.055556 0.000000
1.000000 0.166667 0.000000
1.000000 0.277778 0.000000
1.000000 0.388889 0.000000
1.000000 0.500000 0.000000
1.000000 0.611111 0.000000
1.000000 0.722222 0.000000
1.000000 0.833333 0.000000
1.000000 0.944444 0.000000
0.888889 1.000000 0.000000
0.777778 1.000000 0.000000
0.666667 1.000000 0.000000
0.555556 1.000000 0.000000
0.444444 1.000000 0.000000
0.333333 1.000000 0.000000
0.222222 1.000000 0.000000
0.111111 1.000000 0.000000
0.000000 1.000000 0.000000
-0.111111 1.000000 0.000000
-0.222222 1.000000 0.000000
-0.333333 1.000000 0.000000
-0.444444 1.000000 0.000000
-0.555556 1.000000 0.000000
-0.666667 1.000000 0.000000
-0.777778 1.000000 0.000000
-0.888889 1.000000 0.000000
0.944444 1.000000 0.000000
0.833333 1.000000 0.000000
0.722222 1.000000 0.000000
0.611111 1.000000 0.000000
0.500000 1.000000 0.000000
0.388889 1.000000 0.000000
0.277778 1.000000 0.000000
0.166667 1.000000 0.000000
0.055556 1.000000 0.000000
-0.055556 1.000000 0.000000
-0.166667 1.000000 0.000000
-0.277778 1.000000 0.000000
-0.388889 1.000000 0.000000
-0.500000 1.000000 0.000000
-0.611111 1.000000 0.000000
-0.722222 1.000000 0.000000
-0.833333 1.000000 0.000000
-0.944444 1.000000 0.000000
-1.000000 0.888889 0.000000
-1.000000 0.777778 0.000000
-1.000000 0.666667 0.000000
-1.000000 0.555556 0.000000
-1.000000 0.444444 0.000000
-1.000000 0.333333 0.000000
-1.000000 0.222222 0.000000
-1.000000 0.111111 0.000000
-1.000000 0.000000 0.000000
-1.000000 -0.111111 0.000000
-1.000000 -0.222222 0.000000
-1.000000 -0.333333 0.000000
-1.000000 -0.444444 0.000000
-1.000000 -0.555556 0.000000
-1.000000 -0.666667 0.000000
-1.000000 -0.777778 0.000000
-1.000000 -0.888889 0.000000
-1.000000 0.944444 0.000000
-1.000000 0.833333 0.000000
-1.000000 0.722222 0.000000
-1.000000 0.611111 0.000000
-1.000000 0.500000 0.000000
-1.000000 0.388889 0.000000
-1.000000 0.277778 0.000000
-1.000000 0.166667 0.000000
-1.000000 0.055556 0.000000
-1.000000 -0.055556 0.000000
-1.000000 -0.166667 0.000000
-1.000000 -0.277778 0.000000
-1.000000 -0.388889 0.000000
-1.000000 -0.500000 0.000000
-1.000000 -0.611111 0.000000
-1.000000 -0.722222 0.000000
-1.000000 -0.833333 0.000000
-1.000000 -0.944444 0.000000
-0.888889 -1.000000 0.000000
-0.777778 -1.000000 0.000000
-0.666667 -1.000000 0.000000
-0.555556 -1.000000 0.000000
-0.444444 -1.000000 0.000000
-0.333333 -1.000000 0.000000
-0.222222 -1.000000 0.000000
-0.111111 -1.000000 0.000000
-0.000000 -1.000000 0.000000
0.111111 -1.000000 0.000000
0.222222 -1.000000 0.000000
0.333333 -1.000000 0.000000
0.444444 -1.000000 0.000000
0.555556 -1.000000 0.000000
0.666667 -1.000000 0.000000
0.777778 -1.000000 0.000000
0.888889 -1.000000 0.000000
-0.944444 -1.000000 0.000000
-0.833333 -1.000000 0.000000
-0.722222 -1.000000 0.000000
-0.611111 -1.000000 0.000000
-0.500000 -1.000000 0.000000
-0.388889 -1.000000 0.000000
-0.277778 -1.000000 0.000000
-0.166667 -1.000000 0.000000
-0.055556 -1.000000 0.000000
0.055556 -1.000000 0.000000
0.166667 -1.000000 0.000000
0.277778 -1.000000 0.000000
0.388889 -1.000000 0.000000
0.500000 -1.000000 0.000000
0.611111 -1.000000 0.000000
0.722222 -1.000000 0.000000
0.833333 -1.000000 0.000000
0.944444 -1.000000 0.000000
-0.777778 0.777778 0.000000
-0.555556 0.777778 0.000000
-0.333333 0.777778 0.000000
-0.111111 0.777778 0.000000
0.111111 0.777778 0.000000
0.333333 0.777778 0.000000
0.555556 0.777778 0.000000
0.777778 0.777778 0.000000
-0.777778 0.555556 0.000000
-0.555556 0.555556 0.000000
-0.333333 0.555556 0.000000
-0.111111 0.555556 0.000000
0.111111 0.555556 0.000000
0.333333 0.555556 0.000000
0.555556 0.555556 0.000000
0.777778 0.555556 0.000000
-0.777778 0.333333 0.000000
-0.555556 0.333333 0.000000
-0.333333 0.333333 0.000000
-0.111111 0.333333 0.000000
0.111111 0.333333 0.000000
0.333333 0.333333 0.000000
0.555556 0.333333 0.000000
0.777778 0.333333 0.000000
-0.777778 0.111111 0.000000
-0.555556 0.111111 0.000000
-0.333333 0.111111 0.000000
-0.111111 0.111111 0.000000
0.111111 0.111111 0.000000
0.333333 0.111111 0.000000
0.555556 0.111111 0.000000
0.777778 0.111111 0.000000
-0.777778 -0.111111 0.000000
-0.555556 -0.111111 0.000000
-0.333333 -0.111111 0.000000
-0.111111 -0.111111 0.000000
0.111111 -0.111111 0.000000
0.333333 -0.111111 0.000000
0.555556 -0.111111 0.000000
0.777778 -0.111111 0.000000
-0.777778 -0.333333 0.000000
-0.555556 -0.333333 0.000000
-0.333333 -0.333333 0.000000
-0.111111 -0.333333 0.000000
0.111111 -0.333333 0.000000
0.333333 -0.333333 0.000000
0.555556 -0.333333 0.000000
0.777778 -0.333333 0.000000
-0.777778 -0.555556 0.000000
-0.555556 -0.555556 0.000000
-0.333333 -0.555556 0.000000
-0.111111 -0.555556 0.000000
0.111111 -0.555556 0.000000
0.333333 -0.555556 0.000000
0.555556 -0.555556 0.000000
0.777778 -0.555556 0.000000
-0.777778 -0.777778 0.000000
-0.555556 -0.777778 0.000000
-0.333333 -0.777778 0.000000
-0.111111 -0.777778 0.000000
0.111111 -0.777778 0.000000
0.333333 -0.777778 0.000000
0.555556 -0.777778 0.000000
0.777778 -0.777778 0.000000
-0.888889 0.777778 0.000000
-0.777778 0.888889 0.000000
-0.888889 0.888889 0.000000
-0.666667 0.777778 0.000000
-0.555556 0.888889 0.000000
-0.666667 0.888889 0.000000
-0.444444 0.777778 0.000000
-0.333333 0.888889 0.000000
-0.444444 0.888889 0.000000
-0.222222 0.777778 0.000000
-0.111111 0.888889 0.000000
-0.222222 0.888889 0.000000
0.000000 0.777778 0.000000
0.111111 0.888889 0.000000
0.000000 0.888889 0.000000
0.222222 0.777778 0.000000
0.333333 0.888889 0.000000
0.222222 0.888889 0.000000
0.444444 0.777778 0.000000
0.555556 0.888889 0.000000
0.444444 0.888889 0.000000
0.666667 0.777778 0.000000
0.777778 0.888889 0.000000
0.666667 0.888889 0.000000
0.888889 0.777778 0.000000
0.888889 0.888889 0.000000
-0.888889 0.555556 0.000000
-0.777778 0.666667 0.000000
-0.888889 0.666667 0.000000
-0.666667 0.555556 0.000000
-0.555556 0.666667 0.000000
-0.666667 0.666667 0.000000
-0.444444 0.555556 0.000000
-0.333333 0.666667 0.000000
-0.444444 0.666667 0.000000
-0.222222 0.555556 0.000000
-0.111111 0.666667 0.000000
-0.222222 0.666667 0.000000
0.000000 0.555556 0.000000
0.111111 0.666667 0.000000
0.000000 0.666667 0.000000
0.222222 0.555556 0.000000
0.333333 0.666667 0.000000
0.222222 0.666667 0.000000
0.444444 0.555556 0.000000
0.555556 0.666667 0.000000
0.444444 0.666667 0.000000
0.666667 0.555556 0.000000
0.777778 0.666667 0.000000
0.666667 0.666667 0.000000
0.888889 0.555556 0.000000
0.888889 0.666667 0.000000
-0.888889 0.333333 0.000000
-0.777778 0.444444 0.000000
-0.888889 0.444444 0.000000
-0.666667 0.333333 0.000000
-0.555556 0.444444 0.000000
-0.666667 0.444444 0.000000
-0.444444 0.333333 0.000000
-0.333333 0.444444 0.000000
-0.444444 0.444444 0.000000
-0.222222 0.333333 0.000000
-0.111111 0.444444 0.000000
-0.222222 0.444444 0.000000
0.000000 0.333333 0.000000
0.111111 0.444444 0.000000
0.000000 0.444444 0.000000
0.222222 0.333333 0.000000
0.333333 0.444444 0.000000
0.222222 0.444444 0.000000
0.444444 0.333333 0.000000
0.555556 0.444444 0.000000
0.444444 0.444444 0.000000
0.666667 0.333333 0.000000
0.777778 0.444444 0.000000
0.666667 0.444444 0.000000
0.888889 0.333333 0.000000
0.888889 0.444444 0.000000
-0.888889 0.111111 0.000000
-0.777778 0.222222 0.000000
-0.888889 0.222222 0.000000
-0.666667 0.111111 0.000000
-0.555556 0.222222 0.000000
-0.666667 0.222222 0.000000
-0.444444 0.111111 0.000000
-0.333333 0.222222 0.000000
-0.444444 0.222222 0.000000
-0.222222 0.111111 0.000000
-0.111111 0.222222 0.000000
-0.222222 0.222222 0.000000
0.000000 0.111111 0.000000
0.111111 0.222222 0.000000
0.000000 0.222222 0.000000
0.222222 0.111111 0.000000
0.333333 0.222222 0.000000
0.222222 0.222222 0.000000
0.444444 0.111111 0.000000
0.555556 0.222222 0.000000
0.444444 0.222222 0.000000
0.666667 0.111111 0.000000
0.777778 0.222222 0.000000
0.666667 0.222222 0.000000
0.888889 0.111111 0.000000
0.888889 0.222222 0.000000
-0.888889 -0.111111 0.000000
-0.777778 0.000000 0.000000
-0.888889 0.000000 0.000000
-0.666667 -0.111111 0.000000
-0.555556 0.000000 0.000000
-0.666667 0.000000 0.000000
-0.444444 -0.111111 0.000000
-0.333333 0.000000 0.000000
-0.444444 0.000000 0.000000
-0.222222 -0.111111 0.000000
-0.111111 0.000000 0.000000
-0.222222 0.000000 0.000000
-0.000000 -0.111111 0.000000
0.111111 -0.000000 0.000000
-0.000000 -0.000000 0.000000
0.222222 -0.111111 0.000000
0.333333 -0.000000 0.000000
0.222222 -0.000000 0.000000
0.444444 -0.111111 0.000000
0.555556 -0.000000 0.000000
0.444444 -0.000000 0.000000
0.666667 -0.111111 0.000000
0.777778 -0.000000 0.000000
0.666667 -0.000000 0.000000
0.888889 -0.111111 0.000000
0.888889 -0.000000 0.000000
-0.888889 -0.333333 0.000000
-0.777778 -0.222222 0.000000
-0.888889 -0.222222 0.000000
-0.666667 -0.333333 0.000000
-0.555556 -0.222222 0.000000
-0.666667 -0.222222 0.000000
-0.444444 -0.333333 0.000000
-0.333333 -0.222222 0.000000
-0.444444 -0.222222 0.000000
-0.222222 -0.333333 0.000000
-0.111111 -0.222222 0.000000
-0.222222 -0.222222 0.000000
-0.000000 -0.333333 0.000000
0.111111 -0.222222 0.000000
-0.000000 -0.222222 0.000000
0.222222 -0.333333 0.000000
0.333333 -0.222222 0.000000
[...]
POINT_DATA 1045
VECTORS sol double
+0.000000 +0.000000 0
+0.000000 +0.000000 0
+0.000000 +0.000000 0
+0.000000 +0.000000 0
+0.000000 +0.000000 0
+0.000000 +0.000000 0
+0.000000 +0.000000 0
+0.000000 +0.000000 0
+0.000000 +0.000000 0
+0.000000 +0.000000 0
+0.000000 +0.000000 0
+0.000000 +0.000000 0
+0.000000 +0.000000 0
+0.000000 +0.000000 0
+0.000000 +0.000000 0
+0.000000 +0.000000 0
+0.000000 +0.000000 0
+0.000000 +0.000000 0
+0.000000 +0.000000 0
+0.000000 +0.000000 0
+0.000000 +0.000000 0
+0.000000 +0.000000 0
+0.000000 +0.000000 0
+0.000000 +0.000000 0
+0.000000 +0.000000 0
+0.000000 +0.000000 0
+0.000000 +0.000000 0
+0.000000 +0.000000 0
+0.000000 +0.000000 0
+0.000000 +0.000000 0
+0.000000 +0.000000 0
+0.000000 +0.000000 0
+0.000000 +0.000000 0
+0.000000 +0.000000 0
+0.000000 +0.000000 0
+0.000000 +0.000000 0
+0.000000 +0.000000 0
+0.000000 +0.000000 0
+0.000000 +0.000000 0
+0.000000 +0.000000 0
+0.000000 +0.000000 0
+0.000000 +0.000000 0
+0.000000 +0.000000 0
+0.000000 +0.000000 0
+0.000000 +0.000000 0
+0.000000 +0.000000 0
+0.000000 +0.000000 0
+0.000000 +0.000000 0
+0.000000 +0.000000 0
+0.000000 +0.000000 0
+0.000000 +0.000000 0
+0.000000 +0.000000 0
+0.000000 +0.000000 0
+0.000000 +0.000000 0
+0.000000 +0.000000 0
+0.000000 +0.000000 0
+0.000000 +0.000000 0
+0.000000 +0.000000 0
+0.000000 +0.000000 0
+0.000000 +0.000000 0
+0.000000 +0.000000 0
+0.000000 +0.000000 0
+0.000000 +0.000000 0
+0.000000 +0.000000 0
+0.000000 +0.000000 0
+0.000000 +0.000000 0
+0.000000 +0.000000 0
+0.000000 +0.000000 0
+0.000000 +0.000000 0
+0.000000 +0.000000 0
+0.000000 +0.000000 0
+0.000000 +0.000000 0
+0.000000 +0.000000 0
+0.000000 +0.000000 0
+0.000000 +0.000000 0
+0.000000 +0.000000 0
+0.000000 +0.000000 0
+0.000000 +0.000000 0
+0.000000 +0.000000 0
+0.000000 +0.000000 0
+0.000000 +0.000000 0
+0.000000 +0.000000 0
+0.000000 +0.000000 0
+0.000000 +0.000000 0
+0.000000 +0.000000 0
+0.000000 +0.000000 0
+0.000000 +0.000000 0
+0.000000 +0.000000 0
+0.000000 +0.000000 0
+0.000000 +0.000000 0
+0.000000 +0.000000 0
+0.000000 +0.000000 0
+0.000000 +0.000000 0
+0.000000 +0.000000 0
+0.000000 +0.000000 0
+0.000000 +0.000000 0
+0.000000 +0.000000 0
+0.000000 +0.000000 0
+0.000000 +0.000000 0
+0.000000 +0.000000 0
+0.000000 +0.000000 0
+0.000000 +0.000000 0
+0.000000 +0.000000 0
+0.000000 +0.000000 0
+0.000000 +0.000000 0
+0.000000 +0.000000 0
+0.000000 +0.000000 0
+0.000000 +0.000000 0
+0.000000 +0.000000 0
+0.000000 +0.000000 0
+0.000000 +0.000000 0
+0.000000 +0.000000 0
+0.000000 +0.000000 0
+0.000000 +0.000000 0
+0.000000 +0.000000 0
+0.000000 +0.000000 0
+0.000000 +0.000000 0
+0.000000 +0.000000 0
+0.000000 +0.000000 0
+0.000000 +0.000000 0
+0.000000 +0.000000 0
+0.000000 +0.000000 0
+0.000000 +0.000000 0
+0.000000 +0.000000 0
+0.000000 +0.000000 0
+0.000000 +0.000000 0
+0.000000 +0.000000 0
+0.000000 +0.000000 0
+0.000000 +0.000000 0
+0.000000 +0.000000 0
+0.000000 +0.000000 0
+0.000000 +0.000000 0
+0.000000 +0.000000 0
+0.000000 +0.000000 0
+0.000000 +0.000000 0
+0.000000 +0.000000 0
+0.000000 +0.000000 0
+0.000000 +0.000000 0
+0.000000 +0.000000 0
+0.000000 +0.000000 0
+0.000000 +0.000000 0
+0.000000 +0.000000 0
+0.000000 +0.000000 0
+0.000000 +0.000000 0
-0.150102 -0.026109 0
-0.234214 -0.002838 0
-0.216709 +0.091606 0
-0.108550 +0.237287 0
+0.038182 +0.378948 0
+0.154829 +0.450302 0
+0.188285 +0.405057 0
+0.125664 +0.240125 0
-0.277856 -0.086233 0
-0.432202 -0.075178 0
-0.396535 +0.078061 0
-0.191788 +0.338946 0
+0.083979 +0.605181 0
+0.301729 +0.752190 0
+0.361835 +0.691413 0
+0.240415 +0.414125 0
-0.365595 -0.192893 0
-0.565842 -0.245459 0
-0.512070 -0.089071 0
-0.233172 +0.235777 0
+0.138367 +0.594474 0
+0.428699 +0.819182 0
+0.503962 +0.787367 0
+0.332669 +0.481236 0
-0.403520 -0.326358 0
-0.620487 -0.480235 0
-0.551364 -0.372242 0
-0.229970 -0.040002 0
+0.192528 +0.367893 0
+0.518439 +0.660585 0
+0.596049 +0.694252 0
+0.390517 +0.440234 0
-0.390517 -0.440234 0
-0.596049 -0.694252 0
-0.518439 -0.660585 0
-0.192528 -0.367893 0
+0.229970 +0.040002 0
+0.551364 +0.372242 0
+0.620487 +0.480235 0
+0.403520 +0.326358 0
-0.332669 -0.481236 0
-0.503962 -0.787367 0
-0.428699 -0.819182 0
-0.138367 -0.594474 0
+0.233172 -0.235777 0
+0.512070 +0.089071 0
+0.565842 +0.245459 0
+0.365595 +0.192893 0
-0.240415 -0.414125 0
-0.361835 -0.691413 0
-0.301729 -0.752190 0
-0.083979 -0.605181 0
+0.191788 -0.338946 0
+0.396535 -0.078061 0
+0.432202 +0.075178 0
+0.277856 +0.086233 0
-0.125664 -0.240125 0
-0.188285 -0.405057 0
-0.154829 -0.450302 0
-0.038182 -0.378948 0
+0.108550 -0.237287 0
+0.216709 -0.091606 0
+0.234214 +0.002838 0
+0.150102 +0.026109 0
-0.079570 -0.016501 0
-0.076507 -0.010648 0
-0.040550 -0.007053 0
-0.203633 -0.022913 0
-0.119473 +0.003461 0
-0.103822 -0.007820 0
-0.238617 +0.035725 0
-0.110780 +0.053114 0
-0.121816 +0.023980 0
-0.171455 +0.160885 0
-0.055970 +0.127984 0
-0.087868 +0.088850 0
-0.035726 +0.312871 0
+0.018528 +0.199907 0
-0.019010 +0.166475 0
+0.104311 +0.427120 0
+0.077855 +0.235229 0
+0.052142 +0.224021 0
+0.183881 +0.443620 0
+0.095035 +0.210555 0
+0.092692 +0.231074 0
+0.167906 +0.335784 0
+0.063503 +0.124523 0
+0.084813 +0.174295 0
+0.067162 +0.125160 0
+0.033948 +0.064870 0
-0.147388 -0.049880 0
-0.218034 -0.050433 0
-0.115612 -0.030349 0
-0.376500 -0.097392 0
-0.339766 -0.027197 0
-0.295644 -0.051425 0
-0.438949 -0.016096 0
-0.313262 +0.102865 0
-0.345698 +0.024759 0
-0.310571 +0.200259 0
-0.154657 +0.311579 0
-0.246803 +0.201504 0
-0.054736 +0.479346 0
+0.059851 +0.518672 0
-0.048134 +0.421530 0
+0.207700 +0.700616 0
+0.229891 +0.627245 0
+0.156340 +0.590713 0
+0.355088 +0.750496 0
+0.277886 +0.569105 0
+0.271953 +0.621062 0
+0.321764 +0.576738 0
+0.185109 +0.338776 0
+0.247510 +0.472955 0
+0.128378 +0.216355 0
+0.098896 +0.176745 0
-0.194128 -0.106151 0
-0.327546 -0.134205 0
-0.173827 -0.075406 0
-0.494452 -0.243361 0
-0.508332 -0.148677 0
-0.443448 -0.162025 0
-0.571774 -0.193503 0
-0.463482 +0.013427 0
-0.515079 -0.089594 0
-0.394363 +0.059043 0
-0.218227 +0.313420 0
-0.360261 +0.152286 0
-0.048134 +0.421530 0
+0.110418 +0.630706 0
-0.054736 +0.479346 0
+0.303901 +0.733173 0
+0.368677 +0.816824 0
+0.257391 +0.748589 0
+0.498029 +0.839324 0
+0.437965 +0.764912 0
+0.431218 +0.823994 0
+0.446318 +0.664891 0
+0.290105 +0.462097 0
+0.388712 +0.641371 0
+0.177411 +0.252546 0
+0.154818 +0.241881 0
-0.214550 -0.175039 0
-0.391050 -0.258729 0
-0.207775 -0.140275 0
-0.544406 -0.433176 0
-0.603367 -0.359232 0
-0.528260 -0.336320 0
-0.622830 -0.459716 0
-0.541337 -0.221802 0
-0.607770 -0.320668 0
-0.414882 -0.226861 0
-0.236755 +0.113513 0
-0.412403 -0.071734 0
-0.019010 +0.166475 0
+0.166388 +0.502722 0
-0.035726 +0.312871 0
+0.379155 +0.539731 0
+0.479457 +0.763710 0
+0.345259 +0.659739 0
+0.593705 +0.714771 0
+0.557438 +0.761451 0
+0.553034 +0.800014 0
+0.525397 +0.599651 0
+0.366612 +0.472745 0
+0.492534 +0.649191 0
+0.207948 +0.232856 0
+0.195368 +0.248934 0
-0.207948 -0.232856 0
-0.403143 -0.389209 0
-0.214508 -0.207094 0
-0.525397 -0.599651 0
-0.617651 -0.596303 0
-0.543153 -0.524380 0
-0.593705 -0.714771 0
-0.543153 -0.524380 0
-0.617651 -0.596303 0
-0.379155 -0.539731 0
-0.214508 -0.207094 0
-0.403143 -0.389209 0
+0.019010 -0.166475 0
+0.214508 +0.207094 0
+0.000000 -0.000000 0
+0.414882 +0.226861 0
+0.543153 +0.524380 0
+0.403143 +0.389209 0
+0.622830 +0.459716 0
+0.617651 +0.596303 0
+0.617651 +0.596303 0
+0.544406 +0.433176 0
+0.403143 +0.389209 0
+0.543153 +0.524380 0
+0.214550 +0.175039 0
+0.214508 +0.207094 0
-0.177411 -0.252546 0
-0.366612 -0.472745 0
-0.195368 -0.248934 0
-0.446318 -0.664891 0
-0.557438 -0.761451 0
-0.492534 -0.649191 0
-0.498029 -0.839324 0
-0.479457 -0.763710 0
-0.553034 -0.800014 0
-0.303901 -0.733173 0
-0.166388 -0.502722 0
-0.345259 -0.659739 0
+0.048134 -0.421530 0
+0.236755 -0.113513 0
+0.035726 -0.312871 0
+0.394363 -0.059043 0
+0.541337 +0.221802 0
+0.412403 +0.071734 0
+0.571774 +0.193503 0
+0.603367 +0.359232 0
+0.607770 +0.320668 0
+0.494452 +0.243361 0
+0.391050 +0.258729 0
+0.528260 +0.336320 0
+0.194128 +0.106151 0
+0.207775 +0.140275 0
-0.128378 -0.216355 0
-0.290105 -0.462097 0
-0.154818 -0.241881 0
-0.321764 -0.576738 0
-0.437965 -0.764912 0
-0.388712 -0.641371 0
-0.355088 -0.750496 0
-0.368677 -0.816824 0
-0.431218 -0.823994 0
-0.207700 -0.700616 0
-0.110418 -0.630706 0
-0.257391 -0.748589 0
+0.054736 -0.479346 0
+0.218227 -0.313420 0
+0.054736 -0.479346 0
+0.310571 -0.200259 0
+0.463482 -0.013427 0
+0.360261 -0.152286 0
+0.438949 +0.016096 0
+0.508332 +0.148677 0
+0.515079 +0.089594 0
+0.376500 +0.097392 0
+0.327546 +0.134205 0
+0.443448 +0.162025 0
+0.147388 +0.049880 0
+0.173827 +0.075406 0
-0.067162 -0.125160 0
-0.185109 -0.338776 0
-0.098896 -0.176745 0
-0.167906 -0.335784 0
-0.277886 -0.569105 0
-0.247510 -0.472955 0
-0.183881 -0.443620 0
-0.229891 -0.627245 0
-0.271953 -0.621062 0
-0.104311 -0.427120 0
-0.059851 -0.518672 0
-0.156340 -0.590713 0
+0.035726 -0.312871 0
+0.154657 -0.311579 0
+0.048134 -0.421530 0
+0.171455 -0.160885 0
+0.313262 -0.102865 0
+0.246803 -0.201504 0
+0.238617 -0.035725 0
+0.339766 +0.027197 0
+0.345698 -0.024759 0
+0.203633 +0.022913 0
+0.218034 +0.050433 0
+0.295644 +0.051425 0
+0.079570 +0.016501 0
+0.115612 +0.030349 0
-0.063503 -0.124523 0
-0.033948 -0.064870 0
-0.095035 -0.210555 0
-0.084813 -0.174295 0
-0.077855 -0.235229 0
-0.092692 -0.231074 0
-0.018528 -0.199907 0
-0.052142 -0.224021 0
+0.055970 -0.127984 0
+0.019010 -0.166475 0
+0.110780 -0.053114 0
+0.087868 -0.088850 0
+0.119473 -0.003461 0
+0.121816 -0.023980 0
+0.076507 +0.010648 0
+0.103822 +0.007820 0
+0.040550 +0.007053 0
-0.020569 -0.003749 0
-0.020372 -0.003373 0
-0.040364 -0.008693 0
-0.060347 -0.011340 0
-0.116504 -0.022570 0
-0.113850 -0.017498 0
-0.059376 -0.009485 0
-0.038439 -0.005014 0
-0.091466 -0.010190 0
-0.052167 -0.003442 0
-0.179427 -0.026418 0
-0.154479 -0.014036 0
-0.222071 -0.015148 0
-0.177730 +0.002100 0
-0.113248 -0.003317 0
-0.060038 +0.002358 0
-0.122354 +0.012573 0
-0.061228 +0.012776 0
-0.239778 +0.014141 0
-0.181155 +0.032098 0
-0.230844 +0.061688 0
-0.164652 +0.075047 0
-0.117916 +0.037567 0
-0.055699 +0.027496 0
-0.100661 +0.070336 0
-0.044207 +0.045504 0
-0.196708 +0.124920 0
-0.130460 +0.127962 0
-0.141768 +0.198671 0
-0.082890 +0.186079 0
-0.072819 +0.108235 0
-0.028201 +0.065190 0
-0.037850 +0.147589 0
-0.009652 +0.084524 0
-0.072842 +0.275729 0
-0.027791 +0.243378 0
+0.001658 +0.347655 0
+0.028152 +0.293282 0
-0.000026 +0.184107 0
+0.009191 +0.101290 0
+0.036093 +0.213382 0
+0.026068 +0.113350 0
+0.072747 +0.405772 0
+0.078230 +0.329439 0
+0.131947 +0.442216 0
+0.116516 +0.346496 0
+0.066202 +0.231431 0
+0.038982 +0.118905 0
+0.086771 +0.235180 0
+0.046440 +0.116723 0
+0.172311 +0.450909 0
+0.138577 +0.340779 0
+0.189251 +0.428342 0
+0.142002 +0.310781 0
+0.095470 +0.222868 0
+0.047630 +0.106304 0
+0.091440 +0.194296 0
+0.042515 +0.087967 0
+0.181085 +0.374073 0
+0.126688 +0.257414 0
+0.149229 +0.290878 0
+0.094840 +0.183979 0
+0.075397 +0.150906 0
+0.031836 +0.062832 0
+0.049536 +0.095662 0
+0.017020 +0.032728 0
+0.098010 +0.184530 0
+0.050695 +0.095864 0
+0.034136 +0.063232 0
+0.017256 +0.032768 0
-0.058651 -0.015834 0
-0.098052 -0.022776 0
-0.074778 -0.025808 0
-0.132111 -0.039362 0
-0.215745 -0.070542 0
-0.249106 -0.066809 0
-0.169258 -0.042276 0
-0.184945 -0.036962 0
-0.260574 -0.053775 0
-0.250845 -0.035183 0
-0.331969 -0.095573 0
-0.337667 -0.072083 0
-0.410239 -0.090796 0
-0.387857 -0.048027 0
-0.322297 -0.042713 0
-0.288410 -0.012338 0
-0.347637 -0.004683 0
-0.293658 +0.033622 0
-0.441862 -0.050260 0
-0.394294 +0.008351 0
-0.423681 +0.026924 0
-0.356785 +0.095337 0
-0.334118 +0.060808 0
-0.266429 +0.101300 0
-0.283857 +0.150122 0
-0.210393 +0.185896 0
-0.358445 +0.136291 0
-0.280323 +0.206567 0
-0.254451 +0.268420 0
-0.174478 +0.331663 0
-0.203296 +0.255802 0
-0.132590 +0.279687 0
-0.102409 +0.367368 0
-0.042578 +0.372877 0
-0.124537 +0.409952 0
-0.052230 +0.457401 0
+0.015477 +0.545128 0
+0.071605 +0.569240 0
+0.006503 +0.472515 0
+0.048727 +0.454737 0
+0.110304 +0.558562 0
+0.130372 +0.514882 0
+0.148705 +0.657641 0
+0.182162 +0.653066 0
+0.259226 +0.732612 0
+0.266319 +0.696904 0
+0.196605 +0.613978 0
+0.192681 +0.544542 0
+0.255257 +0.629812 0
+0.228424 +0.537658 0
+0.334004 +0.758420 0
+0.314273 +0.692428 0
+0.364450 +0.728183 0
+0.320711 +0.636050 0
+0.279562 +0.600838 0
+0.233672 +0.491698 0
+0.267078 +0.526290 0
+0.208266 +0.408059 0
+0.347446 +0.640700 0
+0.285437 +0.529484 0
+0.285702 +0.500749 0
+0.213378 +0.379690 0
+0.219888 +0.410081 0
+0.155820 +0.292024 0
+0.144341 +0.260484 0
+0.083265 +0.152274 0
+0.187411 +0.318679 0
+0.113972 +0.198215 0
+0.065237 +0.109367 0
+0.050261 +0.089314 0
-0.088202 -0.038768 0
-0.161338 -0.061919 0
-0.098516 -0.054320 0
-0.184791 -0.090221 0
-0.284044 -0.153094 0
-0.348112 -0.162393 0
-0.254399 -0.107859 0
-0.304086 -0.108743 0
-0.391189 -0.152746 0
-0.411873 -0.127429 0
-0.436436 -0.223558 0
-0.471057 -0.200863 0
-0.538023 -0.250983 0
-0.539542 -0.194470 0
-0.482884 -0.160930 0
-0.472490 -0.108785 0
-0.519168 -0.124894 0
-0.479340 -0.048789 0
-0.577208 -0.226318 0
-0.545980 -0.138092 0
-0.549844 -0.147461 0
-0.490175 -0.033442 0
-0.496326 -0.043210 0
-0.432218 +0.050736 0
-0.417665 +0.079117 0
-0.337306 +0.182178 0
-0.459719 -0.019661 0
-0.379329 +0.110983 0
-0.318081 +0.144984 0
-0.227158 +0.280804 0
-0.293104 +0.231102 0
-0.206424 +0.332918 0
-0.137961 +0.396992 0
-0.055582 +0.486756 0
-0.142273 +0.328881 0
-0.052230 +0.457401 0
+0.046368 +0.511002 0
+0.124285 +0.620100 0
+0.028902 +0.558088 0
+0.096948 +0.625804 0
+0.187358 +0.694958 0
+0.232846 +0.732624 0
+0.225089 +0.669380 0
+0.281168 +0.748650 0
+0.372467 +0.783761 0
+0.399710 +0.825684 0
+0.318446 +0.789786 0
+0.335946 +0.792350 0
+0.406648 +0.828554 0
+0.394184 +0.794542 0
+0.470983 +0.838081 0
+0.465959 +0.838871 0
+0.509133 +0.822474 0
+0.472397 +0.782493 0
+0.441757 +0.802817 0
+0.401034 +0.734546 0
+0.420091 +0.710834 0
+0.356291 +0.614185 0
+0.482804 +0.734560 0
+0.418827 +0.658264 0
+0.395750 +0.579864 0
+0.312384 +0.475274 0
+0.344922 +0.557922 0
+0.266066 +0.441703 0
+0.226064 +0.355996 0
+0.142034 +0.230967 0
+0.259127 +0.371302 0
+0.166652 +0.249075 0
+0.090125 +0.127801 0
+0.078661 +0.122327 0
-0.105458 -0.071537 0
-0.201811 -0.122949 0
-0.108914 -0.089040 0
-0.212033 -0.157783 0
-0.313756 -0.255072 0
-0.398926 -0.292721 0
-0.303934 -0.203522 0
-0.379948 -0.225225 0
-0.466586 -0.303652 0
-0.513572 -0.288829 0
-0.481197 -0.386451 0
-0.538561 -0.384842 0
-0.591324 -0.464869 0
-0.614492 -0.419566 0
-0.574323 -0.355226 0
-0.587172 -0.300774 0
-0.614638 -0.347762 0
-0.592420 -0.254814 0
-0.631113 -0.478601 0
-0.617917 -0.389568 0
-0.595993 -0.423985 0
-0.548734 -0.295760 0
-0.583097 -0.278390 0
-0.529157 -0.152347 0
-0.483867 -0.152314 0
-0.405396 -0.002367 0
-0.490392 -0.305925 0
-0.415536 -0.147261 0
-0.327198 -0.137352 0
-0.234576 +0.039636 0
-0.329198 +0.017720 0
-0.236349 +0.179514 0
-0.137936 +0.212886 0
-0.042578 +0.372877 0
-0.126195 +0.062298 0
-0.027791 +0.243378 0
+0.088319 +0.269398 0
+0.179838 +0.439725 0
+0.066752 +0.410498 0
+0.152486 +0.554910 0
+0.260177 +0.586723 0
+0.325375 +0.703146 0
+0.290473 +0.458969 0
+0.363306 +0.604662 0
+0.455934 +0.607692 0
+0.500598 +0.717303 0
+0.419107 +0.719450 0
+0.455409 +0.798188 0
+0.524564 +0.790987 0
+0.527187 +0.826094 0
+0.564848 +0.696732 0
+0.575339 +0.762444 0
+0.604228 +0.714042 0
+0.578764 +0.732446 0
+0.564111 +0.790245 0
+0.532435 +0.780135 0
+0.533338 +0.714150 0
+0.470994 +0.661706 0
+0.569517 +0.655849 0
+0.510770 +0.628220 0
+0.465129 +0.527167 0
+0.379916 +0.459201 0
+0.436388 +0.568112 0
+0.350823 +0.480288 0
+0.285440 +0.365482 0
+0.187024 +0.252447 0
+0.303915 +0.341249 0
+0.202381 +0.242307 0
+0.105601 +0.118060 0
+0.099230 +0.126076 0
-0.108912 -0.105148 0
-0.215376 -0.191636 0
-0.105601 -0.118060 0
-0.212024 -0.220991 0
-0.303915 -0.341249 0
-0.398323 -0.416652 0
-0.313600 -0.302760 0
-0.404926 -0.358834 0
-0.480462 -0.463856 0
-0.545933 -0.480142 0
-0.465129 -0.527167 0
-0.536281 -0.564666 0
-0.569517 -0.655849 0
-0.609120 -0.648387 0
-0.589374 -0.569003 0
-0.621528 -0.539725 0
-0.627199 -0.605521 0
-0.622718 -0.529307 0
-0.604228 -0.714042 0
-0.607931 -0.658806 0
-0.564848 -0.696732 0
-0.532749 -0.595604 0
-0.589374 -0.569003 0
-0.549466 -0.449204 0
-0.480462 -0.463856 0
-0.410694 -0.308316 0
-0.455934 -0.607692 0
-0.392555 -0.467170 0
-0.290473 -0.458969 0
-0.204195 -0.289554 0
-0.313600 -0.302760 0
-0.223205 -0.123073 0
-0.108912 -0.105148 0
-0.009652 +0.084524 0
-0.088319 -0.269398 0
+0.009652 -0.084524 0
+0.126195 -0.062298 0
+0.223205 +0.123073 0
+0.108912 +0.105148 0
+0.204195 +0.289554 0
+0.313600 +0.302760 0
+0.392555 +0.467170 0
+0.327198 +0.137352 0
+0.410694 +0.308316 0
+0.490392 +0.305925 0
+0.549466 +0.449204 0
+0.480462 +0.463856 0
+0.532749 +0.595604 0
+0.589374 +0.569003 0
+0.607931 +0.658806 0
+0.595993 +0.423985 0
+0.622718 +0.529307 0
+0.631113 +0.478601 0
+0.621528 +0.539725 0
+0.627199 +0.605521 0
+0.609120 +0.648387 0
+0.589374 +0.569003 0
+0.536281 +0.564666 0
+0.591324 +0.464869 0
+0.545933 +0.480142 0
+0.481197 +0.386451 0
+0.404926 +0.358834 0
+0.480462 +0.463856 0
+0.398323 +0.416652 0
+0.313600 +0.302760 0
+0.212024 +0.220991 0
+0.313756 +0.255072 0
+0.215376 +0.191636 0
+0.108914 +0.089040 0
+0.108912 +0.105148 0
-0.099230 -0.126076 0
-0.202381 -0.242307 0
-0.090125 -0.127801 0
-0.187024 -0.252447 0
-0.259127 -0.371302 0
-0.350823 -0.480288 0
-0.285440 -0.365482 0
-0.379916 -0.459201 0
-0.436388 -0.568112 0
-0.510770 -0.628220 0
-0.395750 -0.579864 0
-0.470994 -0.661706 0
-0.482804 -0.734560 0
-0.532435 -0.780135 0
-0.533338 -0.714150 0
-0.578764 -0.732446 0
-0.564111 -0.790245 0
-0.575339 -0.762444 0
-0.509133 -0.822474 0
-0.527187 -0.826094 0
-0.470983 -0.838081 0
-0.455409 -0.798188 0
-0.524564 -0.790987 0
-0.500598 -0.717303 0
-0.419107 -0.719450 0
-0.363306 -0.604662 0
-0.372467 -0.783761 0
-0.325375 -0.703146 0
-0.225089 -0.669380 0
-0.152486 -0.554910 0
-0.260177 -0.586723 0
-0.179838 -0.439725 0
-0.066752 -0.410498 0
+0.027791 -0.243378 0
-0.046368 -0.511002 0
+0.042578 -0.372877 0
+0.142273 -0.328881 0
+0.236349 -0.179514 0
+0.137936 -0.212886 0
+0.234576 -0.039636 0
+0.329198 -0.017720 0
+0.415536 +0.147261 0
+0.318081 -0.144984 0
+0.405396 +0.002367 0
+0.459719 +0.019661 0
+0.529157 +0.152347 0
+0.483867 +0.152314 0
+0.548734 +0.295760 0
+0.583097 +0.278390 0
+0.617917 +0.389568 0
+0.549844 +0.147461 0
+0.592420 +0.254814 0
+0.577208 +0.226318 0
+0.587172 +0.300774 0
+0.614638 +0.347762 0
+0.614492 +0.419566 0
+0.574323 +0.355226 0
+0.538561 +0.384842 0
+0.538023 +0.250983 0
+0.513572 +0.288829 0
+0.436436 +0.223558 0
+0.379948 +0.225225 0
+0.466586 +0.303652 0
+0.398926 +0.292721 0
+0.303934 +0.203522 0
+0.212033 +0.157783 0
+0.284044 +0.153094 0
+0.201811 +0.122949 0
+0.098516 +0.054320 0
+0.105458 +0.071537 0
-0.078661 -0.122327 0
-0.166652 -0.249075 0
-0.065237 -0.109367 0
-0.142034 -0.230967 0
-0.187411 -0.318679 0
-0.266066 -0.441703 0
-0.226064 -0.355996 0
-0.312384 -0.475274 0
-0.344922 -0.557922 0
-0.418827 -0.658264 0
-0.285702 -0.500749 0
-0.356291 -0.614185 0
-0.347446 -0.640700 0
-0.401034 -0.734546 0
-0.420091 -0.710834 0
-0.472397 -0.782493 0
-0.441757 -0.802817 0
-0.465959 -0.838871 0
-0.364450 -0.728183 0
-0.394184 -0.794542 0
-0.334004 -0.758420 0
-0.335946 -0.792350 0
-0.406648 -0.828554 0
-0.399710 -0.825684 0
-0.318446 -0.789786 0
-0.281168 -0.748650 0
-0.259226 -0.732612 0
-0.232846 -0.732624 0
-0.148705 -0.657641 0
-0.096948 -0.625804 0
-0.187358 -0.694958 0
-0.124285 -0.620100 0
-0.028902 -0.558088 0
+0.052230 -0.457401 0
-0.015477 -0.545128 0
+0.055582 -0.486756 0
+0.124537 -0.409952 0
+0.206424 -0.332918 0
+0.137961 -0.396992 0
+0.227158 -0.280804 0
+0.293104 -0.231102 0
+0.379329 -0.110983 0
+0.254451 -0.268420 0
+0.337306 -0.182178 0
+0.358445 -0.136291 0
+0.432218 -0.050736 0
+0.417665 -0.079117 0
+0.490175 +0.033442 0
+0.496326 +0.043210 0
+0.545980 +0.138092 0
+0.423681 -0.026924 0
+0.479340 +0.048789 0
+0.441862 +0.050260 0
+0.472490 +0.108785 0