# vtk DataFile Version 2.0
MyTitle
ASCII
DATASET UNSTRUCTURED_GRID
POINTS 1045 double
1.000000 -1.000000 0.000000
1.000000 1.000000 0.000000
-1.000000 1.000000 0.000000
-1.000000 -1.000000 0.000000
1.000000 -0.888889 0.000000
1.000000 -0.777778 0.000000
1.000000 -0.666667 0.000000
1.000000 -0.555556 0.000000
1.000000 -0.444444 0.000000
1.000000 -0.333333 0.000000
1.000000 -0.222222 0.000000
1.000000 -0.111111 0.000000
1.000000 -0.000000 0.000000
1.000000 0.111111 0.000000
1.000000 0.222222 0.000000
1.000000 0.333333 0.000000
1.000000 0.444444 0.000000
1.000000 0.555556 0.000000
1.000000 0.666667 0.000000
1.000000 0.777778 0.000000
1.000000 0.888889 0.000000
1.000000 -0.944444 0.000000
1.000000 -0.833333 0.000000
1.000000 -0.722222 0.000000
1.000000 -0.611111 0.000000
1.000000 -0.500000 0.000000
1.000000 -0.388889 0.000000
1.000000 -0.277778 0.000000
1.000000 -0.166667 0.000000
1.000000 -0.055556 0.000000
1.000000 0.055556 0.000000
1.000000 0.166667 0.000000
1.000000 0.277778 0.000000
1.000000 0.388889 0.000000
1.000000 0.500000 0.000000
1.000000 0.611111 0.000000
1.000000 0.722222 0.000000
1.000000 0.833333 0.000000
1.000000 0.944444 0.000000
0.888889 1.000000 0.000000
0.777778 1.000000 0.000000
0.666667 1.000000 0.000000
0.555556 1.000000 0.000000
0.444444 1.000000 0.000000
0.333333 1.000000 0.000000
0.222222 1.000000 0.000000
0.111111 1.000000 0.000000
0.000000 1.000000 0.000000
-0.111111 1.000000 0.000000
-0.222222 1.000000 0.000000
-0.333333 1.000000 0.000000
-0.444444 1.000000 0.000000
-0.555556 1.000000 0.000000
-0.666667 1.000000 0.000000
-0.777778 1.000000 0.000000
-0.888889 1.000000 0.000000
0.944444 1.000000 0.000000
0.833333 1.000000 0.000000
0.722222 1.000000 0.000000
0.611111 1.000000 0.000000
0.500000 1.000000 0.000000
0.388889 1.000000 0.000000
0.277778 1.000000 0.000000
0.166667 1.000000 0.000000
0.055556 1.000000 0.000000
-0.055556 1.000000 0.000000
-0.166667 1.000000 0.000000
-0.277778 1.000000 0.000000
-0.388889 1.000000 0.000000
-0.500000 1.000000 0.000000
-0.611111 1.000000 0.000000
-0.722222 1.000000 0.000000
-0.833333 1.000000 0.000000
-0.944444 1.000000 0.000000
-1.000000 0.888889 0.000000
-1.000000 0.777778 0.000000
-1.000000 0.666667 0.000000
-1.000000 0.555556 0.000000
-1.000000 0.444444 0.000000
-1.000000 0.333333 0.000000
-1.000000 0.222222 0.000000
-1.000000 0.111111 0.000000
-1.000000 0.000000 0.000000
-1.000000 -0.111111 0.000000
-1.000000 -0.222222 0.000000
-1.000000 -0.333333 0.000000
-1.000000 -0.444444 0.000000
-1.000000 -0.555556 0.000000
-1.000000 -0.666667 0.000000
-1.000000 -0.777778 0.000000
-1.000000 -0.888889 0.000000
-1.000000 0.944444 0.000000
-1.000000 0.833333 0.000000
-1.000000 0.722222 0.000000
-1.000000 0.611111 0.000000
-1.000000 0.500000 0.000000
-1.000000 0.388889 0.000000
-1.000000 0.277778 0.000000
-1.000000 0.166667 0.000000
-1.000000 0.055556 0.000000
-1.000000 -0.055556 0.000000
-1.000000 -0.166667 0.000000
-1.000000 -0.277778 0.000000
-1.000000 -0.388889 0.000000
-1.000000 -0.500000 0.000000
-1.000000 -0.611111 0.000000
-1.000000 -0.722222 0.000000
-1.000000 -0.833333 0.000000
-1.000000 -0.944444 0.000000
-0.888889 -1.000000 0.000000
-0.777778 -1.000000 0.000000
-0.666667 -1.000000 0.000000
-0.555556 -1.000000 0.000000
-0.444444 -1.000000 0.000000
-0.333333 -1.000000 0.000000
-0.222222 -1.000000 0.000000
-0.111111 -1.000000 0.000000
-0.000000 -1.000000 0.000000
0.111111 -1.000000 0.000000
0.222222 -1.000000 0.000000
0.333333 -1.000000 0.000000
0.444444 -1.000000 0.000000
0.555556 -1.000000 0.000000
0.666667 -1.000000 0.000000
0.777778 -1.000000 0.000000
0.888889 -1.000000 0.000000
-0.944444 -1.000000 0.000000
-0.833333 -1.000000 0.000000
-0.722222 -1.000000 0.000000
-0.611111 -1.000000 0.000000
-0.500000 -1.000000 0.000000
-0.388889 -1.000000 0.000000
-0.277778 -1.000000 0.000000
-0.166667 -1.000000 0.000000
-0.055556 -1.000000 0.000000
0.055556 -1.000000 0.000000
0.166667 -1.000000 0.000000
0.277778 -1.000000 0.000000
0.388889 -1.000000 0.000000
0.500000 -1.000000 0.000000
0.611111 -1.000000 0.000000
0.722222 -1.000000 0.000000
0.833333 -1.000000 0.000000
0.944444 -1.000000 0.000000
-0.777778 0.777778 0.000000
-0.555556 0.777778 0.000000
-0.333333 0.777778 0.000000
-0.111111 0.777778 0.000000
0.111111 0.777778 0.000000
0.333333 0.777778 0.000000
0.555556 0.777778 0.000000
0.777778 0.777778 0.000000
-0.777778 0.555556 0.000000
-0.555556 0.555556 0.000000
-0.333333 0.555556 0.000000
-0.111111 0.555556 0.000000
0.111111 0.555556 0.000000
0.333333 0.555556 0.000000
0.555556 0.555556 0.000000
0.777778 0.555556 0.000000
-0.777778 0.333333 0.000000
-0.555556 0.333333 0.000000
-0.333333 0.333333 0.000000
-0.111111 0.333333 0.000000
0.111111 0.333333 0.000000
0.333333 0.333333 0.000000
0.555556 0.333333 0.000000
0.777778 0.333333 0.000000
-0.777778 0.111111 0.000000
-0.555556 0.111111 0.000000
-0.333333 0.111111 0.000000
-0.111111 0.111111 0.000000
0.111111 0.111111 0.000000
0.333333 0.111111 0.000000
0.555556 0.111111 0.000000
0.777778 0.111111 0.000000
-0.777778 -0.111111 0.000000
-0.555556 -0.111111 0.000000
-0.333333 -0.111111 0.000000
-0.111111 -0.111111 0.000000
0.111111 -0.111111 0.000000
0.333333 -0.111111 0.000000
0.555556 -0.111111 0.000000
0.777778 -0.111111 0.000000
-0.777778 -0.333333 0.000000
-0.555556 -0.333333 0.000000
-0.333333 -0.333333 0.000000
-0.111111 -0.333333 0.000000
0.111111 -0.333333 0.000000
0.333333 -0.333333 0.000000
0.555556 -0.333333 0.000000
0.777778 -0.333333 0.000000
-0.777778 -0.555556 0.000000
-0.555556 -0.555556 0.000000
-0.333333 -0.555556 0.000000
-0.111111 -0.555556 0.000000
0.111111 -0.555556 0.000000
0.333333 -0.555556 0.000000
0.555556 -0.555556 0.000000
0.777778 -0.555556 0.000000
-0.777778 -0.777778 0.000000
-0.555556 -0.777778 0.000000
-0.333333 -0.777778 0.000000
-0.111111 -0.777778 0.000000
0.111111 -0.777778 0.000000
0.333333 -0.777778 0.000000
0.555556 -0.777778 0.000000
0.777778 -0.777778 0.000000
-0.888889 0.777778 0.000000
-0.777778 0.888889 0.000000
-0.888889 0.888889 0.000000
-0.666667 0.777778 0.000000
-0.555556 0.888889 0.000000
-0.666667 0.888889 0.000000
-0.444444 0.777778 0.000000
-0.333333 0.888889 0.000000
-0.444444 0.888889 0.000000
-0.222222 0.777778 0.000000
-0.111111 0.888889 0.000000
-0.222222 0.888889 0.000000
0.000000 0.777778 0.000000
0.111111 0.888889 0.000000
0.000000 0.888889 0.000000
0.222222 0.777778 0.000000
0.333333 0.888889 0.000000
0.222222 0.888889 0.000000
0.444444 0.777778 0.000000
0.555556 0.888889 0.000000
0.444444 0.888889 0.000000
0.666667 0.777778 0.000000
0.777778 0.888889 0.000000
0.666667 0.888889 0.000000
0.888889 0.777778 0.000000
0.888889 0.888889 0.000000
-0.888889 0.555556 0.000000
-0.777778 0.666667 0.000000
-0.888889 0.666667 0.000000
-0.666667 0.555556 0.000000
-0.555556 0.666667 0.000000
-0.666667 0.666667 0.000000
-0.444444 0.555556 0.000000
-0.333333 0.666667 0.000000
-0.444444 0.666667 0.000000
-0.222222 0.555556 0.000000
-0.111111 0.666667 0.000000
-0.222222 0.666667 0.000000
0.000000 0.555556 0.000000
0.111111 0.666667 0.000000
0.000000 0.666667 0.000000
0.222222 0.555556 0.000000
0.333333 0.666667 0.000000
0.222222 0.666667 0.000000
0.444444 0.555556 0.000000
0.555556 0.666667 0.000000
0.444444 0.666667 0.000000
0.666667 0.555556 0.000000
0.777778 0.666667 0.000000
0.666667 0.666667 0.000000
0.888889 0.555556 0.000000
0.888889 0.666667 0.000000
-0.888889 0.333333 0.000000
-0.777778 0.444444 0.000000
-0.888889 0.444444 0.000000
-0.666667 0.333333 0.000000
-0.555556 0.444444 0.000000
-0.666667 0.444444 0.000000
-0.444444 0.333333 0.000000
-0.333333 0.444444 0.000000
-0.444444 0.444444 0.000000
-0.222222 0.333333 0.000000
-0.111111 0.444444 0.000000
-0.222222 0.444444 0.000000
0.000000 0.333333 0.000000
0.111111 0.444444 0.000000
0.000000 0.444444 0.000000
0.222222 0.333333 0.000000
0.333333 0.444444 0.000000
0.222222 0.444444 0.000000
0.444444 0.333333 0.000000
0.555556 0.444444 0.000000
0.444444 0.444444 0.000000
0.666667 0.333333 0.000000
0.777778 0.444444 0.000000
0.666667 0.444444 0.000000
0.888889 0.333333 0.000000
0.888889 0.444444 0.000000
-0.888889 0.111111 0.000000
-0.777778 0.222222 0.000000
-0.888889 0.222222 0.000000
-0.666667 0.111111 0.000000
-0.555556 0.222222 0.000000
-0.666667 0.222222 0.000000
-0.444444 0.111111 0.000000
-0.333333 0.222222 0.000000
-0.444444 0.222222 0.000000
-0.222222 0.111111 0.000000
-0.111111 0.222222 0.000000
-0.222222 0.222222 0.000000
0.000000 0.111111 0.000000
0.111111 0.222222 0.000000
0.000000 0.222222 0.000000
0.222222 0.111111 0.000000
0.333333 0.222222 0.000000
0.222222 0.222222 0.000000
0.444444 0.111111 0.000000
0.555556 0.222222 0.000000
0.444444 0.222222 0.000000
0.666667 0.111111 0.000000
0.777778 0.222222 0.000000
0.666667 0.222222 0.000000
0.888889 0.111111 0.000000
0.888889 0.222222 0.000000
-0.888889 -0.111111 0.000000
-0.777778 0.000000 0.000000
-0.888889 0.000000 0.000000
-0.666667 -0.111111 0.000000
-0.555556 0.000000 0.000000
-0.666667 0.000000 0.000000
-0.444444 -0.111111 0.000000
-0.333333 0.000000 0.000000
-0.444444 0.000000 0.000000
-0.222222 -0.111111 0.000000
-0.111111 0.000000 0.000000
-0.222222 0.000000 0.000000
-0.000000 -0.111111 0.000000
0.111111 -0.000000 0.000000
-0.000000 -0.000000 0.000000
0.222222 -0.111111 0.000000
0.333333 -0.000000 0.000000
0.222222 -0.000000 0.000000
0.444444 -0.111111 0.000000
0.555556 -0.000000 0.000000
0.444444 -0.000000 0.000000
0.666667 -0.111111 0.000000
0.777778 -0.000000 0.000000
0.666667 -0.000000 0.000000
0.888889 -0.111111 0.000000
0.888889 -0.000000 0.000000
-0.888889 -0.333333 0.000000
-0.777778 -0.222222 0.000000
-0.888889 -0.222222 0.000000
-0.666667 -0.333333 0.000000
-0.555556 -0.222222 0.000000
-0.666667 -0.222222 0.000000
-0.444444 -0.333333 0.000000
-0.333333 -0.222222 0.000000
-0.444444 -0.222222 0.000000
-0.222222 -0.333333 0.000000
-0.111111 -0.222222 0.000000
-0.222222 -0.222222 0.000000
-0.000000 -0.333333 0.000000
0.111111 -0.222222 0.000000
-0.000000 -0.222222 0.000000
0.222222 -0.333333 0.000000
0.333333 -0.222222 0.000000
[...]
POINT_DATA 1045
VECTORS sol double
+0.000000 +0.000000 0
+0.000000 +0.000000 0
+0.000000 +0.000000 0
+0.000000 +0.000000 0
+0.000000 +0.000000 0
+0.000000 +0.000000 0
+0.000000 +0.000000 0
+0.000000 +0.000000 0
+0.000000 +0.000000 0
+0.000000 +0.000000 0
+0.000000 +0.000000 0
+0.000000 +0.000000 0
+0.000000 +0.000000 0
+0.000000 +0.000000 0
+0.000000 +0.000000 0
+0.000000 +0.000000 0
+0.000000 +0.000000 0
+0.000000 +0.000000 0
+0.000000 +0.000000 0
+0.000000 +0.000000 0
+0.000000 +0.000000 0
+0.000000 +0.000000 0
+0.000000 +0.000000 0
+0.000000 +0.000000 0
+0.000000 +0.000000 0
+0.000000 +0.000000 0
+0.000000 +0.000000 0
+0.000000 +0.000000 0
+0.000000 +0.000000 0
+0.000000 +0.000000 0
+0.000000 +0.000000 0
+0.000000 +0.000000 0
+0.000000 +0.000000 0
+0.000000 +0.000000 0
+0.000000 +0.000000 0
+0.000000 +0.000000 0
+0.000000 +0.000000 0
+0.000000 +0.000000 0
+0.000000 +0.000000 0
+0.000000 +0.000000 0
+0.000000 +0.000000 0
+0.000000 +0.000000 0
+0.000000 +0.000000 0
+0.000000 +0.000000 0
+0.000000 +0.000000 0
+0.000000 +0.000000 0
+0.000000 +0.000000 0
+0.000000 +0.000000 0
+0.000000 +0.000000 0
+0.000000 +0.000000 0
+0.000000 +0.000000 0
+0.000000 +0.000000 0
+0.000000 +0.000000 0
+0.000000 +0.000000 0
+0.000000 +0.000000 0
+0.000000 +0.000000 0
+0.000000 +0.000000 0
+0.000000 +0.000000 0
+0.000000 +0.000000 0
+0.000000 +0.000000 0
+0.000000 +0.000000 0
+0.000000 +0.000000 0
+0.000000 +0.000000 0
+0.000000 +0.000000 0
+0.000000 +0.000000 0
+0.000000 +0.000000 0
+0.000000 +0.000000 0
+0.000000 +0.000000 0
+0.000000 +0.000000 0
+0.000000 +0.000000 0
+0.000000 +0.000000 0
+0.000000 +0.000000 0
+0.000000 +0.000000 0
+0.000000 +0.000000 0
+0.000000 +0.000000 0
+0.000000 +0.000000 0
+0.000000 +0.000000 0
+0.000000 +0.000000 0
+0.000000 +0.000000 0
+0.000000 +0.000000 0
+0.000000 +0.000000 0
+0.000000 +0.000000 0
+0.000000 +0.000000 0
+0.000000 +0.000000 0
+0.000000 +0.000000 0
+0.000000 +0.000000 0
+0.000000 +0.000000 0
+0.000000 +0.000000 0
+0.000000 +0.000000 0
+0.000000 +0.000000 0
+0.000000 +0.000000 0
+0.000000 +0.000000 0
+0.000000 +0.000000 0
+0.000000 +0.000000 0
+0.000000 +0.000000 0
+0.000000 +0.000000 0
+0.000000 +0.000000 0
+0.000000 +0.000000 0
+0.000000 +0.000000 0
+0.000000 +0.000000 0
+0.000000 +0.000000 0
+0.000000 +0.000000 0
+0.000000 +0.000000 0
+0.000000 +0.000000 0
+0.000000 +0.000000 0
+0.000000 +0.000000 0
+0.000000 +0.000000 0
+0.000000 +0.000000 0
+0.000000 +0.000000 0
+0.000000 +0.000000 0
+0.000000 +0.000000 0
+0.000000 +0.000000 0
+0.000000 +0.000000 0
+0.000000 +0.000000 0
+0.000000 +0.000000 0
+0.000000 +0.000000 0
+0.000000 +0.000000 0
+0.000000 +0.000000 0
+0.000000 +0.000000 0
+0.000000 +0.000000 0
+0.000000 +0.000000 0
+0.000000 +0.000000 0
+0.000000 +0.000000 0
+0.000000 +0.000000 0
+0.000000 +0.000000 0
+0.000000 +0.000000 0
+0.000000 +0.000000 0
+0.000000 +0.000000 0
+0.000000 +0.000000 0
+0.000000 +0.000000 0
+0.000000 +0.000000 0
+0.000000 +0.000000 0
+0.000000 +0.000000 0
+0.000000 +0.000000 0
+0.000000 +0.000000 0
+0.000000 +0.000000 0
+0.000000 +0.000000 0
+0.000000 +0.000000 0
+0.000000 +0.000000 0
+0.000000 +0.000000 0
+0.000000 +0.000000 0
+0.000000 +0.000000 0
+0.000000 +0.000000 0
+0.000000 +0.000000 0
+0.045580 +0.280376 0
+0.099662 +0.477022 0
+0.163170 +0.539659 0
+0.225858 +0.469957 0
+0.268754 +0.317014 0
+0.271785 +0.152392 0
+0.223173 +0.036637 0
+0.126197 -0.007064 0
+0.055834 +0.479475 0
+0.131243 +0.807312 0
+0.231130 +0.894054 0
+0.338587 +0.746575 0
+0.419203 +0.459135 0
+0.435259 +0.166229 0
+0.363369 -0.020340 0
+0.207344 -0.060736 0
+0.013653 +0.548029 0
+0.061106 +0.903572 0
+0.155496 +0.956497 0
+0.278887 +0.723775 0
+0.387502 +0.336508 0
+0.430517 -0.024099 0
+0.373849 -0.211521 0
+0.217781 -0.179796 0
-0.070363 +0.486539 0
-0.091931 +0.770674 0
-0.040654 +0.741663 0
+0.069833 +0.429562 0
+0.193345 -0.010823 0
+0.272089 -0.373430 0
+0.263708 -0.497362 0
+0.161763 -0.341113 0
-0.161763 +0.341113 0
-0.263708 +0.497362 0
-0.272089 +0.373430 0
-0.193345 +0.010823 0
-0.069833 -0.429562 0
+0.040654 -0.741663 0
+0.091931 -0.770674 0
+0.070363 -0.486539 0
-0.217781 +0.179796 0
-0.373849 +0.211521 0
-0.430517 +0.024099 0
-0.387502 -0.336508 0
-0.278887 -0.723775 0
-0.155496 -0.956497 0
-0.061106 -0.903572 0
-0.013653 -0.548029 0
-0.207344 +0.060736 0
-0.363369 +0.020340 0
-0.435259 -0.166229 0
-0.419203 -0.459135 0
-0.338587 -0.746575 0
-0.231130 -0.894054 0
-0.131243 -0.807312 0
-0.055834 -0.479475 0
-0.126197 +0.007064 0
-0.223173 -0.036637 0
-0.271785 -0.152392 0
-0.268754 -0.317014 0
-0.225858 -0.469957 0
-0.163170 -0.539659 0
-0.099662 -0.477022 0
-0.045580 -0.280376 0
+0.022159 +0.145854 0
+0.025235 +0.145682 0
+0.012313 +0.075743 0
+0.071253 +0.393412 0
+0.054534 +0.248451 0
+0.039237 +0.204610 0
+0.130614 +0.526270 0
+0.088145 +0.282427 0
+0.071004 +0.274655 0
+0.195668 +0.519180 0
+0.120700 +0.248195 0
+0.105096 +0.272747 0
+0.251121 +0.399556 0
+0.142478 +0.170543 0
+0.133619 +0.212599 0
+0.276285 +0.231739 0
+0.143290 +0.085806 0
+0.146026 +0.126809 0
+0.254126 +0.085885 0
+0.117243 +0.024862 0
+0.133712 +0.051066 0
+0.179868 +0.006144 0
+0.066165 -0.000256 0
+0.094382 +0.007989 0
+0.065054 -0.007090 0
+0.034092 -0.001908 0
+0.026501 +0.250020 0
+0.056790 +0.394221 0
+0.027397 +0.205273 0
+0.090306 +0.669990 0
+0.127196 +0.667925 0
+0.089775 +0.552234 0
+0.178665 +0.882764 0
+0.213615 +0.749272 0
+0.168898 +0.734276 0
+0.285782 +0.845343 0
+0.301840 +0.641936 0
+0.259004 +0.715960 0
+0.384740 +0.612155 0
+0.364549 +0.418347 0
+0.338335 +0.538320 0
+0.437292 +0.305132 0
+0.372398 +0.183125 0
+0.376857 +0.295750 0
+0.410791 +0.055112 0
+0.307758 +0.024126 0
+0.349460 +0.090477 0
+0.294434 -0.057835 0
+0.174644 -0.025989 0
+0.248559 -0.013914 0
+0.107118 -0.037421 0
+0.090105 -0.018316 0
+0.004444 +0.287112 0
+0.041308 +0.531269 0
+0.018772 +0.277579 0
+0.031657 +0.759458 0
+0.108987 +0.886664 0
+0.070735 +0.739771 0
+0.102808 +0.969923 0
+0.211559 +0.963836 0
+0.156409 +0.962116 0
+0.215866 +0.869768 0
+0.330857 +0.774134 0
+0.271256 +0.897137 0
+0.338335 +0.538320 0
+0.426932 +0.431576 0
+0.384740 +0.612155 0
+0.419995 +0.141943 0
+0.454830 +0.096448 0
+0.451818 +0.253338 0
+0.415551 -0.145169 0
+0.385625 -0.099693 0
+0.433047 -0.024241 0
+0.306678 -0.221138 0
+0.221870 -0.112530 0
+0.314005 -0.127617 0
+0.113058 -0.100156 0
+0.114847 -0.064980 0
-0.038553 +0.257110 0
-0.024858 +0.531524 0
-0.015320 +0.279487 0
-0.089562 +0.663846 0
-0.008255 +0.861803 0
-0.023647 +0.731782 0
-0.075461 +0.796879 0
+0.068269 +0.878030 0
+0.022697 +0.911051 0
+0.009497 +0.613604 0
+0.188379 +0.603591 0
+0.125231 +0.770328 0
+0.133619 +0.212599 0
+0.306233 +0.183381 0
+0.251121 +0.399556 0
+0.241624 -0.214048 0
+0.366685 -0.185979 0
+0.346723 -0.019409 0
+0.280177 -0.471158 0
+0.331091 -0.348144 0
+0.362043 -0.298896 0
+0.223181 -0.451247 0
+0.196635 -0.258212 0
+0.274768 -0.332227 0
+0.084959 -0.183275 0
+0.102534 -0.140723 0
-0.084959 +0.183275 0
-0.117854 +0.420210 0
-0.062709 +0.223589 0
-0.223181 +0.451247 0
-0.180562 +0.643799 0
-0.158784 +0.566147 0
-0.280177 +0.471158 0
-0.158784 +0.566147 0
-0.180562 +0.643799 0
-0.241624 +0.214048 0
-0.062709 +0.223589 0
-0.117854 +0.420210 0
-0.133619 -0.212599 0
+0.062709 -0.223589 0
+0.000000 +0.000000 0
-0.009497 -0.613604 0
+0.158784 -0.566147 0
+0.117854 -0.420210 0
+0.075461 -0.796879 0
+0.180562 -0.643799 0
+0.180562 -0.643799 0
+0.089562 -0.663846 0
+0.117854 -0.420210 0
+0.158784 -0.566147 0
+0.038553 -0.257110 0
+0.062709 -0.223589 0
-0.113058 +0.100156 0
-0.196635 +0.258212 0
-0.102534 +0.140723 0
-0.306678 +0.221138 0
-0.331091 +0.348144 0
-0.274768 +0.332227 0
-0.415551 +0.145169 0
-0.366685 +0.185979 0
-0.362043 +0.298896 0
-0.419995 -0.141943 0
-0.306233 -0.183381 0
-0.346723 +0.019409 0
-0.338335 -0.538320 0
-0.188379 -0.603591 0
-0.251121 -0.399556 0
-0.215866 -0.869768 0
-0.068269 -0.878030 0
-0.125231 -0.770328 0
-0.102808 -0.969923 0
+0.008255 -0.861803 0
-0.022697 -0.911051 0
-0.031657 -0.759458 0
+0.024858 -0.531524 0
+0.023647 -0.731782 0
-0.004444 -0.287112 0
+0.015320 -0.279487 0
-0.107118 +0.037421 0
-0.221870 +0.112530 0
-0.114847 +0.064980 0
-0.294434 +0.057835 0
-0.385625 +0.099693 0
-0.314005 +0.127617 0
-0.410791 -0.055112 0
-0.454830 -0.096448 0
-0.433047 +0.024241 0
-0.437292 -0.305132 0
-0.426932 -0.431576 0
-0.451818 -0.253338 0
-0.384740 -0.612155 0
-0.330857 -0.774134 0
-0.384740 -0.612155 0
-0.285782 -0.845343 0
-0.211559 -0.963836 0
-0.271256 -0.897137 0
-0.178665 -0.882764 0
-0.108987 -0.886664 0
-0.156409 -0.962116 0
-0.090306 -0.669990 0
-0.041308 -0.531269 0
-0.070735 -0.739771 0
-0.026501 -0.250020 0
-0.018772 -0.277579 0
-0.065054 +0.007090 0
-0.174644 +0.025989 0
-0.090105 +0.018316 0
-0.179868 -0.006144 0
-0.307758 -0.024126 0
-0.248559 +0.013914 0
-0.254126 -0.085885 0
-0.372398 -0.183125 0
-0.349460 -0.090477 0
-0.276285 -0.231739 0
-0.364549 -0.418347 0
-0.376857 -0.295750 0
-0.251121 -0.399556 0
-0.301840 -0.641936 0
-0.338335 -0.538320 0
-0.195668 -0.519180 0
-0.213615 -0.749272 0
-0.259004 -0.715960 0
-0.130614 -0.526270 0
-0.127196 -0.667925 0
-0.168898 -0.734276 0
-0.071253 -0.393412 0
-0.056790 -0.394221 0
-0.089775 -0.552234 0
-0.022159 -0.145854 0
-0.027397 -0.205273 0
-0.066165 +0.000256 0
-0.034092 +0.001908 0
-0.117243 -0.024862 0
-0.094382 -0.007989 0
-0.143290 -0.085806 0
-0.133712 -0.051066 0
-0.142478 -0.170543 0
-0.146026 -0.126809 0
-0.120700 -0.248195 0
-0.133619 -0.212599 0
-0.088145 -0.282427 0
-0.105096 -0.272747 0
-0.054534 -0.248451 0
-0.071004 -0.274655 0
-0.025235 -0.145682 0
-0.039237 -0.204610 0
-0.012313 -0.075743 0
+0.006117 +0.038243 0
+0.006315 +0.038232 0
+0.010998 +0.073652 0
+0.017690 +0.111843 0
+0.033642 +0.215215 0
+0.036308 +0.215065 0
+0.018665 +0.111788 0
+0.012931 +0.073544 0
+0.032082 +0.176815 0
+0.020082 +0.103316 0
+0.058093 +0.340151 0
+0.056574 +0.301940 0
+0.085114 +0.439296 0
+0.078830 +0.366418 0
+0.046725 +0.228623 0
+0.027870 +0.125497 0
+0.062647 +0.263859 0
+0.036232 +0.138802 0
+0.114866 +0.506135 0
+0.102907 +0.404727 0
+0.146786 +0.537421 0
+0.128075 +0.415704 0
+0.079539 +0.280834 0
+0.044914 +0.142826 0
+0.096714 +0.279651 0
+0.053479 +0.138058 0
+0.179563 +0.533419 0
+0.153059 +0.400827 0
+0.211218 +0.497754 0
+0.176145 +0.363958 0
+0.113151 +0.262124 0
+0.061346 +0.125791 0
+0.127587 +0.231511 0
+0.067842 +0.107943 0
+0.239286 +0.436878 0
+0.195344 +0.310809 0
+0.261065 +0.359223 0
+0.208607 +0.248216 0
+0.138644 +0.192085 0
+0.072277 +0.086815 0
+0.144990 +0.148601 0
+0.074023 +0.064808 0
+0.273929 +0.274158 0
+0.214067 +0.183302 0
+0.275641 +0.190850 0
+0.210270 +0.122633 0
+0.145494 +0.105724 0
+0.072592 +0.044136 0
+0.139377 +0.067481 0
+0.067708 +0.026576 0
+0.264643 +0.117198 0
+0.196377 +0.071460 0
+0.240287 +0.058943 0
+0.172299 +0.033150 0
+0.126325 +0.036813 0
+0.059346 +0.013271 0
+0.106562 +0.015270 0
+0.047761 +0.004627 0
+0.202971 +0.019073 0
+0.138770 +0.008869 0
+0.154172 -0.002419 0
+0.097315 -0.002460 0
+0.080862 +0.002888 0
+0.033475 +0.000294 0
+0.050504 -0.001735 0
+0.017246 -0.000744 0
+0.096353 -0.008381 0
+0.050152 -0.003900 0
+0.032777 -0.004002 0
+0.017175 -0.001183 0
+0.013569 +0.103681 0
+0.025467 +0.177185 0
+0.013068 +0.126326 0
+0.027781 +0.229683 0
+0.040653 +0.368555 0
+0.057964 +0.440816 0
+0.041732 +0.302771 0
+0.052552 +0.340461 0
+0.072763 +0.477914 0
+0.082535 +0.477367 0
+0.072320 +0.580627 0
+0.092485 +0.616806 0
+0.109937 +0.746012 0
+0.132414 +0.744753 0
+0.107920 +0.615942 0
+0.116064 +0.578179 0
+0.147571 +0.707540 0
+0.152953 +0.636872 0
+0.154205 +0.853099 0
+0.177665 +0.816751 0
+0.204423 +0.896348 0
+0.226863 +0.830612 0
+0.191010 +0.748145 0
+0.192080 +0.651663 0
+0.236419 +0.738303 0
+0.231426 +0.625065 0
+0.258422 +0.876732 0
+0.277385 +0.789934 0
+0.312716 +0.801430 0
+0.325579 +0.703506 0
+0.280980 +0.683435 0
+0.268234 +0.563449 0
+0.321141 +0.593053 0
+0.299284 +0.476187 0
+0.362825 +0.682820 0
+0.367126 +0.584130 0
+0.403756 +0.536878 0
+0.397518 +0.447005 0
+0.352980 +0.479531 0
+0.321240 +0.374456 0
+0.372657 +0.356559 0
+0.331044 +0.269874 0
+0.430573 +0.381207 0
+0.412586 +0.307871 0
+0.438990 +0.232912 0
+0.409019 +0.181130 0
+0.376875 +0.237501 0
+0.326295 +0.173117 0
+0.363306 +0.133820 0
+0.305577 +0.092689 0
+0.425922 +0.106586 0
+0.384805 +0.078187 0
+0.389920 +0.012652 0
+0.339554 +0.006189 0
+0.330925 +0.053789 0
+0.268688 +0.033995 0
+0.280216 +0.001617 0
+0.216749 -0.001180 0
+0.331436 -0.043750 0
+0.274641 -0.032676 0
+0.252888 -0.063192 0
+0.193165 -0.041248 0
+0.213220 -0.022889 0
+0.152170 -0.014730 0
+0.133409 -0.024105 0
+0.078473 -0.011807 0
+0.158510 -0.051668 0
+0.099720 -0.026817 0
+0.053999 -0.019616 0
+0.045408 -0.009842 0
+0.009144 +0.140318 0
+0.023499 +0.266050 0
+0.001916 +0.145233 0
+0.012381 +0.284593 0
+0.008176 +0.422415 0
+0.029021 +0.544013 0
+0.029353 +0.408845 0
+0.050285 +0.509751 0
+0.055008 +0.642355 0
+0.083062 +0.711151 0
+0.021353 +0.661220 0
+0.053490 +0.755843 0
+0.044856 +0.840801 0
+0.088071 +0.902861 0
+0.088700 +0.821731 0
+0.123447 +0.854820 0
+0.131606 +0.933678 0
+0.171602 +0.931439 0
+0.080459 +0.946829 0
+0.133321 +0.974859 0
+0.127946 +0.973004 0
+0.187868 +0.969650 0
+0.183186 +0.972067 0
+0.226064 +0.938679 0
+0.241110 +0.938459 0
+0.283788 +0.881274 0
+0.185008 +0.921610 0
+0.248442 +0.893131 0
+0.247424 +0.803080 0
+0.310179 +0.758416 0
+0.301416 +0.841720 0
+0.340409 +0.770281 0
+0.358901 +0.696812 0
+0.390688 +0.621618 0
+0.309487 +0.634606 0
+0.367126 +0.584130 0
+0.364633 +0.437978 0
+0.412919 +0.392095 0
+0.407681 +0.522885 0
+0.429095 +0.454067 0
+0.441873 +0.340918 0
+0.450464 +0.286985 0
+0.406213 +0.236914 0
+0.441529 +0.204673 0
+0.428286 +0.054194 0
+0.448014 +0.042093 0
+0.456302 +0.171185 0
+0.450627 +0.137995 0
+0.447159 +0.030867 0
+0.426966 +0.020935 0
+0.426371 -0.091039 0
+0.429148 -0.079920 0
+0.398037 -0.185501 0
+0.383898 -0.151918 0
+0.412520 -0.067927 0
+0.378811 -0.055684 0
+0.352672 -0.119469 0
+0.307625 -0.089533 0
+0.343281 -0.223242 0
+0.313636 -0.171714 0
+0.264631 -0.206195 0
+0.222108 -0.144445 0
+0.270201 -0.124919 0
+0.216961 -0.084539 0
+0.169810 -0.091958 0
+0.112186 -0.050165 0
+0.166965 -0.143750 0
+0.115121 -0.081727 0
+0.057062 -0.051394 0
+0.057924 -0.033609 0
-0.008031 +0.141501 0
-0.004865 +0.285337 0
-0.019709 +0.130328 0
-0.026653 +0.269950 0
-0.055700 +0.376936 0
-0.047031 +0.512210 0
-0.021150 +0.410579 0
-0.004455 +0.543720 0
-0.025854 +0.639466 0
+0.005730 +0.751217 0
-0.081851 +0.583046 0
-0.055707 +0.702282 0
-0.093035 +0.726939 0
-0.048852 +0.821670 0
-0.017862 +0.806461 0
+0.028725 +0.889589 0
+0.005280 +0.896865 0
+0.065614 +0.948283 0
-0.086081 +0.794155 0
-0.024774 +0.859979 0
-0.060220 +0.779150 0
+0.015794 +0.816046 0
+0.043809 +0.904586 0
+0.115275 +0.925513 0
+0.095616 +0.832735 0
+0.174419 +0.828323 0
-0.017219 +0.685882 0
+0.069721 +0.697972 0
+0.038787 +0.527273 0
+0.131802 +0.522066 0
+0.156426 +0.693119 0
+0.237902 +0.671601 0
+0.220256 +0.504727 0
+0.299284 +0.476187 0
+0.101760 +0.323596 0
+0.195344 +0.310809 0
+0.164471 +0.100000 0
+0.252950 +0.090108 0
+0.280094 +0.291374 0
+0.351573 +0.266304 0
+0.328722 +0.078793 0
+0.388051 +0.066615 0
+0.219355 -0.116547 0
+0.297405 -0.113842 0
+0.259427 -0.300507 0
+0.322552 -0.277709 0
+0.359588 -0.108466 0
+0.403100 -0.100733 0
+0.367619 -0.249968 0
+0.392916 -0.218722 0
+0.279137 -0.430835 0
+0.324058 -0.383792 0
+0.275054 -0.493483 0
+0.299981 -0.422102 0
+0.349872 -0.331786 0
+0.356027 -0.277415 0
+0.305948 -0.348092 0
+0.293554 -0.275030 0
+0.246322 -0.483046 0
+0.251051 -0.391473 0
+0.194795 -0.403342 0
+0.180654 -0.299604 0
+0.238119 -0.301734 0
+0.209177 -0.217989 0
+0.151145 -0.203746 0
+0.108806 -0.119959 0
+0.124868 -0.266883 0
+0.094495 -0.162007 0
+0.043001 -0.093268 0
+0.051806 -0.071852 0
-0.031839 +0.113523 0
-0.050692 +0.241491 0
-0.043001 +0.093268 0
-0.074253 +0.204003 0
-0.124868 +0.266883 0
-0.140613 +0.381708 0
-0.091677 +0.326876 0
-0.094206 +0.455546 0
-0.140457 +0.500803 0
-0.124264 +0.617986 0
-0.194795 +0.403342 0
-0.192107 +0.510043 0
-0.246322 +0.483046 0
-0.223490 +0.571989 0
-0.172296 +0.614325 0
-0.136274 +0.710758 0
-0.183353 +0.653751 0
-0.127912 +0.724063 0
-0.275054 +0.493483 0
-0.231852 +0.558685 0
-0.279137 +0.430835 0
-0.216939 +0.470533 0
-0.172296 +0.614325 0
-0.099432 +0.657496 0
-0.140457 +0.500803 0
-0.053659 +0.520060 0
-0.259427 +0.300507 0
-0.181160 +0.317194 0
-0.219355 +0.116547 0
-0.129284 +0.116444 0
-0.091677 +0.326876 0
+0.004339 +0.329050 0
-0.031839 +0.113523 0
+0.067842 +0.107943 0
-0.164471 -0.100000 0
-0.067842 -0.107943 0
-0.101760 -0.323596 0
-0.004339 -0.329050 0
+0.031839 -0.113523 0
+0.129284 -0.116444 0
+0.091677 -0.326876 0
+0.181160 -0.317194 0
-0.038787 -0.527273 0
+0.053659 -0.520060 0
+0.017219 -0.685882 0
+0.099432 -0.657496 0
+0.140457 -0.500803 0
+0.216939 -0.470533 0
+0.172296 -0.614325 0
+0.231852 -0.558685 0
+0.060220 -0.779150 0
+0.127912 -0.724063 0
+0.086081 -0.794155 0
+0.136274 -0.710758 0
+0.183353 -0.653751 0
+0.223490 -0.571989 0
+0.172296 -0.614325 0
+0.192107 -0.510043 0
+0.093035 -0.726939 0
+0.124264 -0.617986 0
+0.081851 -0.583046 0
+0.094206 -0.455546 0
+0.140457 -0.500803 0
+0.140613 -0.381708 0
+0.091677 -0.326876 0
+0.074253 -0.204003 0
+0.055700 -0.376936 0
+0.050692 -0.241491 0
+0.019709 -0.130328 0
+0.031839 -0.113523 0
-0.051806 +0.071852 0
-0.094495 +0.162007 0
-0.057062 +0.051394 0
-0.108806 +0.119959 0
-0.166965 +0.143750 0
-0.209177 +0.217989 0
-0.151145 +0.203746 0
-0.180654 +0.299604 0
-0.238119 +0.301734 0
-0.251051 +0.391473 0
-0.264631 +0.206195 0
-0.293554 +0.275030 0
-0.343281 +0.223242 0
-0.356027 +0.277415 0
-0.305948 +0.348092 0
-0.299981 +0.422102 0
-0.349872 +0.331786 0
-0.324058 +0.383792 0
-0.398037 +0.185501 0
-0.392916 +0.218722 0
-0.426371 +0.091039 0
-0.403100 +0.100733 0
-0.367619 +0.249968 0
-0.322552 +0.277709 0
-0.359588 +0.108466 0
-0.297405 +0.113842 0
-0.428286 -0.054194 0
-0.388051 -0.066615 0
-0.406213 -0.236914 0
-0.351573 -0.266304 0
-0.328722 -0.078793 0
-0.252950 -0.090108 0
-0.280094 -0.291374 0
-0.195344 -0.310809 0
-0.364633 -0.437978 0
-0.299284 -0.476187 0
-0.309487 -0.634606 0
-0.237902 -0.671601 0
-0.220256 -0.504727 0
-0.131802 -0.522066 0
-0.156426 -0.693119 0
-0.069721 -0.697972 0
-0.247424 -0.803080 0
-0.174419 -0.828323 0
-0.185008 -0.921610 0
-0.115275 -0.925513 0
-0.095616 -0.832735 0
-0.015794 -0.816046 0
-0.043809 -0.904586 0
+0.024774 -0.859979 0
-0.127946 -0.973004 0
-0.065614 -0.948283 0
-0.080459 -0.946829 0
-0.028725 -0.889589 0
-0.005280 -0.896865 0
+0.048852 -0.821670 0
+0.017862 -0.806461 0
+0.055707 -0.702282 0
-0.044856 -0.840801 0
-0.005730 -0.751217 0
-0.021353 -0.661220 0
+0.004455 -0.543720 0
+0.025854 -0.639466 0
+0.047031 -0.512210 0
+0.021150 -0.410579 0
+0.026653 -0.269950 0
-0.008176 -0.422415 0
+0.004865 -0.285337 0
-0.001916 -0.145233 0
+0.008031 -0.141501 0
-0.057924 +0.033609 0
-0.115121 +0.081727 0
-0.053999 +0.019616 0
-0.112186 +0.050165 0
-0.158510 +0.051668 0
-0.216961 +0.084539 0
-0.169810 +0.091958 0
-0.222108 +0.144445 0
-0.270201 +0.124919 0
-0.313636 +0.171714 0
-0.252888 +0.063192 0
-0.307625 +0.089533 0
-0.331436 +0.043750 0
-0.378811 +0.055684 0
-0.352672 +0.119469 0
-0.383898 +0.151918 0
-0.412520 +0.067927 0
-0.429148 +0.079920 0
-0.389920 -0.012652 0
-0.426966 -0.020935 0
-0.425922 -0.106586 0
-0.450627 -0.137995 0
-0.447159 -0.030867 0
-0.448014 -0.042093 0
-0.456302 -0.171185 0
-0.441529 -0.204673 0
-0.438990 -0.232912 0
-0.450464 -0.286985 0
-0.430573 -0.381207 0
-0.429095 -0.454067 0
-0.441873 -0.340918 0
-0.412919 -0.392095 0
-0.407681 -0.522885 0
-0.367126 -0.584130 0
-0.403756 -0.536878 0
-0.390688 -0.621618 0
-0.362825 -0.682820 0
-0.340409 -0.770281 0
-0.358901 -0.696812 0
-0.310179 -0.758416 0
-0.301416 -0.841720 0
-0.248442 -0.893131 0
-0.312716 -0.801430 0
-0.283788 -0.881274 0
-0.258422 -0.876732 0
-0.226064 -0.938679 0
-0.241110 -0.938459 0
-0.187868 -0.969650 0
-0.183186 -0.972067 0
-0.133321 -0.974859 0
-0.204423 -0.896348 0
-0.171602 -0.931439 0
-0.154205 -0.853099 0
-0.123447 -0.854820 0