# vtk DataFile Version 2.0
MyTitle
ASCII
DATASET UNSTRUCTURED_GRID
POINTS 1045 double
1.000000 -1.000000 0.000000
1.000000 1.000000 0.000000
-1.000000 1.000000 0.000000
-1.000000 -1.000000 0.000000
1.000000 -0.888889 0.000000
1.000000 -0.777778 0.000000
1.000000 -0.666667 0.000000
1.000000 -0.555556 0.000000
1.000000 -0.444444 0.000000
1.000000 -0.333333 0.000000
1.000000 -0.222222 0.000000
1.000000 -0.111111 0.000000
1.000000 -0.000000 0.000000
1.000000 0.111111 0.000000
1.000000 0.222222 0.000000
1.000000 0.333333 0.000000
1.000000 0.444444 0.000000
1.000000 0.555556 0.000000
1.000000 0.666667 0.000000
1.000000 0.777778 0.000000
1.000000 0.888889 0.000000
1.000000 -0.944444 0.000000
1.000000 -0.833333 0.000000
1.000000 -0.722222 0.000000
1.000000 -0.611111 0.000000
1.000000 -0.500000 0.000000
1.000000 -0.388889 0.000000
1.000000 -0.277778 0.000000
1.000000 -0.166667 0.000000
1.000000 -0.055556 0.000000
1.000000 0.055556 0.000000
1.000000 0.166667 0.000000
1.000000 0.277778 0.000000
1.000000 0.388889 0.000000
1.000000 0.500000 0.000000
1.000000 0.611111 0.000000
1.000000 0.722222 0.000000
1.000000 0.833333 0.000000
1.000000 0.944444 0.000000
0.888889 1.000000 0.000000
0.777778 1.000000 0.000000
0.666667 1.000000 0.000000
0.555556 1.000000 0.000000
0.444444 1.000000 0.000000
0.333333 1.000000 0.000000
0.222222 1.000000 0.000000
0.111111 1.000000 0.000000
0.000000 1.000000 0.000000
-0.111111 1.000000 0.000000
-0.222222 1.000000 0.000000
-0.333333 1.000000 0.000000
-0.444444 1.000000 0.000000
-0.555556 1.000000 0.000000
-0.666667 1.000000 0.000000
-0.777778 1.000000 0.000000
-0.888889 1.000000 0.000000
0.944444 1.000000 0.000000
0.833333 1.000000 0.000000
0.722222 1.000000 0.000000
0.611111 1.000000 0.000000
0.500000 1.000000 0.000000
0.388889 1.000000 0.000000
0.277778 1.000000 0.000000
0.166667 1.000000 0.000000
0.055556 1.000000 0.000000
-0.055556 1.000000 0.000000
-0.166667 1.000000 0.000000
-0.277778 1.000000 0.000000
-0.388889 1.000000 0.000000
-0.500000 1.000000 0.000000
-0.611111 1.000000 0.000000
-0.722222 1.000000 0.000000
-0.833333 1.000000 0.000000
-0.944444 1.000000 0.000000
-1.000000 0.888889 0.000000
-1.000000 0.777778 0.000000
-1.000000 0.666667 0.000000
-1.000000 0.555556 0.000000
-1.000000 0.444444 0.000000
-1.000000 0.333333 0.000000
-1.000000 0.222222 0.000000
-1.000000 0.111111 0.000000
-1.000000 0.000000 0.000000
-1.000000 -0.111111 0.000000
-1.000000 -0.222222 0.000000
-1.000000 -0.333333 0.000000
-1.000000 -0.444444 0.000000
-1.000000 -0.555556 0.000000
-1.000000 -0.666667 0.000000
-1.000000 -0.777778 0.000000
-1.000000 -0.888889 0.000000
-1.000000 0.944444 0.000000
-1.000000 0.833333 0.000000
-1.000000 0.722222 0.000000
-1.000000 0.611111 0.000000
-1.000000 0.500000 0.000000
-1.000000 0.388889 0.000000
-1.000000 0.277778 0.000000
-1.000000 0.166667 0.000000
-1.000000 0.055556 0.000000
-1.000000 -0.055556 0.000000
-1.000000 -0.166667 0.000000
-1.000000 -0.277778 0.000000
-1.000000 -0.388889 0.000000
-1.000000 -0.500000 0.000000
-1.000000 -0.611111 0.000000
-1.000000 -0.722222 0.000000
-1.000000 -0.833333 0.000000
-1.000000 -0.944444 0.000000
-0.888889 -1.000000 0.000000
-0.777778 -1.000000 0.000000
-0.666667 -1.000000 0.000000
-0.555556 -1.000000 0.000000
-0.444444 -1.000000 0.000000
-0.333333 -1.000000 0.000000
-0.222222 -1.000000 0.000000
-0.111111 -1.000000 0.000000
-0.000000 -1.000000 0.000000
0.111111 -1.000000 0.000000
0.222222 -1.000000 0.000000
0.333333 -1.000000 0.000000
0.444444 -1.000000 0.000000
0.555556 -1.000000 0.000000
0.666667 -1.000000 0.000000
0.777778 -1.000000 0.000000
0.888889 -1.000000 0.000000
-0.944444 -1.000000 0.000000
-0.833333 -1.000000 0.000000
-0.722222 -1.000000 0.000000
-0.611111 -1.000000 0.000000
-0.500000 -1.000000 0.000000
-0.388889 -1.000000 0.000000
-0.277778 -1.000000 0.000000
-0.166667 -1.000000 0.000000
-0.055556 -1.000000 0.000000
0.055556 -1.000000 0.000000
0.166667 -1.000000 0.000000
0.277778 -1.000000 0.000000
0.388889 -1.000000 0.000000
0.500000 -1.000000 0.000000
0.611111 -1.000000 0.000000
0.722222 -1.000000 0.000000
0.833333 -1.000000 0.000000
0.944444 -1.000000 0.000000
-0.777778 0.777778 0.000000
-0.555556 0.777778 0.000000
-0.333333 0.777778 0.000000
-0.111111 0.777778 0.000000
0.111111 0.777778 0.000000
0.333333 0.777778 0.000000
0.555556 0.777778 0.000000
0.777778 0.777778 0.000000
-0.777778 0.555556 0.000000
-0.555556 0.555556 0.000000
-0.333333 0.555556 0.000000
-0.111111 0.555556 0.000000
0.111111 0.555556 0.000000
0.333333 0.555556 0.000000
0.555556 0.555556 0.000000
0.777778 0.555556 0.000000
-0.777778 0.333333 0.000000
-0.555556 0.333333 0.000000
-0.333333 0.333333 0.000000
-0.111111 0.333333 0.000000
0.111111 0.333333 0.000000
0.333333 0.333333 0.000000
0.555556 0.333333 0.000000
0.777778 0.333333 0.000000
-0.777778 0.111111 0.000000
-0.555556 0.111111 0.000000
-0.333333 0.111111 0.000000
-0.111111 0.111111 0.000000
0.111111 0.111111 0.000000
0.333333 0.111111 0.000000
0.555556 0.111111 0.000000
0.777778 0.111111 0.000000
-0.777778 -0.111111 0.000000
-0.555556 -0.111111 0.000000
-0.333333 -0.111111 0.000000
-0.111111 -0.111111 0.000000
0.111111 -0.111111 0.000000
0.333333 -0.111111 0.000000
0.555556 -0.111111 0.000000
0.777778 -0.111111 0.000000
-0.777778 -0.333333 0.000000
-0.555556 -0.333333 0.000000
-0.333333 -0.333333 0.000000
-0.111111 -0.333333 0.000000
0.111111 -0.333333 0.000000
0.333333 -0.333333 0.000000
0.555556 -0.333333 0.000000
0.777778 -0.333333 0.000000
-0.777778 -0.555556 0.000000
-0.555556 -0.555556 0.000000
-0.333333 -0.555556 0.000000
-0.111111 -0.555556 0.000000
0.111111 -0.555556 0.000000
0.333333 -0.555556 0.000000
0.555556 -0.555556 0.000000
0.777778 -0.555556 0.000000
-0.777778 -0.777778 0.000000
-0.555556 -0.777778 0.000000
-0.333333 -0.777778 0.000000
-0.111111 -0.777778 0.000000
0.111111 -0.777778 0.000000
0.333333 -0.777778 0.000000
0.555556 -0.777778 0.000000
0.777778 -0.777778 0.000000
-0.888889 0.777778 0.000000
-0.777778 0.888889 0.000000
-0.888889 0.888889 0.000000
-0.666667 0.777778 0.000000
-0.555556 0.888889 0.000000
-0.666667 0.888889 0.000000
-0.444444 0.777778 0.000000
-0.333333 0.888889 0.000000
-0.444444 0.888889 0.000000
-0.222222 0.777778 0.000000
-0.111111 0.888889 0.000000
-0.222222 0.888889 0.000000
0.000000 0.777778 0.000000
0.111111 0.888889 0.000000
0.000000 0.888889 0.000000
0.222222 0.777778 0.000000
0.333333 0.888889 0.000000
0.222222 0.888889 0.000000
0.444444 0.777778 0.000000
0.555556 0.888889 0.000000
0.444444 0.888889 0.000000
0.666667 0.777778 0.000000
0.777778 0.888889 0.000000
0.666667 0.888889 0.000000
0.888889 0.777778 0.000000
0.888889 0.888889 0.000000
-0.888889 0.555556 0.000000
-0.777778 0.666667 0.000000
-0.888889 0.666667 0.000000
-0.666667 0.555556 0.000000
-0.555556 0.666667 0.000000
-0.666667 0.666667 0.000000
-0.444444 0.555556 0.000000
-0.333333 0.666667 0.000000
-0.444444 0.666667 0.000000
-0.222222 0.555556 0.000000
-0.111111 0.666667 0.000000
-0.222222 0.666667 0.000000
0.000000 0.555556 0.000000
0.111111 0.666667 0.000000
0.000000 0.666667 0.000000
0.222222 0.555556 0.000000
0.333333 0.666667 0.000000
0.222222 0.666667 0.000000
0.444444 0.555556 0.000000
0.555556 0.666667 0.000000
0.444444 0.666667 0.000000
0.666667 0.555556 0.000000
0.777778 0.666667 0.000000
0.666667 0.666667 0.000000
0.888889 0.555556 0.000000
0.888889 0.666667 0.000000
-0.888889 0.333333 0.000000
-0.777778 0.444444 0.000000
-0.888889 0.444444 0.000000
-0.666667 0.333333 0.000000
-0.555556 0.444444 0.000000
-0.666667 0.444444 0.000000
-0.444444 0.333333 0.000000
-0.333333 0.444444 0.000000
-0.444444 0.444444 0.000000
-0.222222 0.333333 0.000000
-0.111111 0.444444 0.000000
-0.222222 0.444444 0.000000
0.000000 0.333333 0.000000
0.111111 0.444444 0.000000
0.000000 0.444444 0.000000
0.222222 0.333333 0.000000
0.333333 0.444444 0.000000
0.222222 0.444444 0.000000
0.444444 0.333333 0.000000
0.555556 0.444444 0.000000
0.444444 0.444444 0.000000
0.666667 0.333333 0.000000
0.777778 0.444444 0.000000
0.666667 0.444444 0.000000
0.888889 0.333333 0.000000
0.888889 0.444444 0.000000
-0.888889 0.111111 0.000000
-0.777778 0.222222 0.000000
-0.888889 0.222222 0.000000
-0.666667 0.111111 0.000000
-0.555556 0.222222 0.000000
-0.666667 0.222222 0.000000
-0.444444 0.111111 0.000000
-0.333333 0.222222 0.000000
-0.444444 0.222222 0.000000
-0.222222 0.111111 0.000000
-0.111111 0.222222 0.000000
-0.222222 0.222222 0.000000
0.000000 0.111111 0.000000
0.111111 0.222222 0.000000
0.000000 0.222222 0.000000
0.222222 0.111111 0.000000
0.333333 0.222222 0.000000
0.222222 0.222222 0.000000
0.444444 0.111111 0.000000
0.555556 0.222222 0.000000
0.444444 0.222222 0.000000
0.666667 0.111111 0.000000
0.777778 0.222222 0.000000
0.666667 0.222222 0.000000
0.888889 0.111111 0.000000
0.888889 0.222222 0.000000
-0.888889 -0.111111 0.000000
-0.777778 0.000000 0.000000
-0.888889 0.000000 0.000000
-0.666667 -0.111111 0.000000
-0.555556 0.000000 0.000000
-0.666667 0.000000 0.000000
-0.444444 -0.111111 0.000000
-0.333333 0.000000 0.000000
-0.444444 0.000000 0.000000
-0.222222 -0.111111 0.000000
-0.111111 0.000000 0.000000
-0.222222 0.000000 0.000000
-0.000000 -0.111111 0.000000
0.111111 -0.000000 0.000000
-0.000000 -0.000000 0.000000
0.222222 -0.111111 0.000000
0.333333 -0.000000 0.000000
0.222222 -0.000000 0.000000
0.444444 -0.111111 0.000000
0.555556 -0.000000 0.000000
0.444444 -0.000000 0.000000
0.666667 -0.111111 0.000000
0.777778 -0.000000 0.000000
0.666667 -0.000000 0.000000
0.888889 -0.111111 0.000000
0.888889 -0.000000 0.000000
-0.888889 -0.333333 0.000000
-0.777778 -0.222222 0.000000
-0.888889 -0.222222 0.000000
-0.666667 -0.333333 0.000000
-0.555556 -0.222222 0.000000
-0.666667 -0.222222 0.000000
-0.444444 -0.333333 0.000000
-0.333333 -0.222222 0.000000
-0.444444 -0.222222 0.000000
-0.222222 -0.333333 0.000000
-0.111111 -0.222222 0.000000
-0.222222 -0.222222 0.000000
-0.000000 -0.333333 0.000000
0.111111 -0.222222 0.000000
-0.000000 -0.222222 0.000000
0.222222 -0.333333 0.000000
0.333333 -0.222222 0.000000
[...]
POINT_DATA 1045
VECTORS sol double
+0.000000 +0.000000 0
+0.000000 +0.000000 0
+0.000000 +0.000000 0
+0.000000 +0.000000 0
+0.000000 +0.000000 0
+0.000000 +0.000000 0
+0.000000 +0.000000 0
+0.000000 +0.000000 0
+0.000000 +0.000000 0
+0.000000 +0.000000 0
+0.000000 +0.000000 0
+0.000000 +0.000000 0
+0.000000 +0.000000 0
+0.000000 +0.000000 0
+0.000000 +0.000000 0
+0.000000 +0.000000 0
+0.000000 +0.000000 0
+0.000000 +0.000000 0
+0.000000 +0.000000 0
+0.000000 +0.000000 0
+0.000000 +0.000000 0
+0.000000 +0.000000 0
+0.000000 +0.000000 0
+0.000000 +0.000000 0
+0.000000 +0.000000 0
+0.000000 +0.000000 0
+0.000000 +0.000000 0
+0.000000 +0.000000 0
+0.000000 +0.000000 0
+0.000000 +0.000000 0
+0.000000 +0.000000 0
+0.000000 +0.000000 0
+0.000000 +0.000000 0
+0.000000 +0.000000 0
+0.000000 +0.000000 0
+0.000000 +0.000000 0
+0.000000 +0.000000 0
+0.000000 +0.000000 0
+0.000000 +0.000000 0
+0.000000 +0.000000 0
+0.000000 +0.000000 0
+0.000000 +0.000000 0
+0.000000 +0.000000 0
+0.000000 +0.000000 0
+0.000000 +0.000000 0
+0.000000 +0.000000 0
+0.000000 +0.000000 0
+0.000000 +0.000000 0
+0.000000 +0.000000 0
+0.000000 +0.000000 0
+0.000000 +0.000000 0
+0.000000 +0.000000 0
+0.000000 +0.000000 0
+0.000000 +0.000000 0
+0.000000 +0.000000 0
+0.000000 +0.000000 0
+0.000000 +0.000000 0
+0.000000 +0.000000 0
+0.000000 +0.000000 0
+0.000000 +0.000000 0
+0.000000 +0.000000 0
+0.000000 +0.000000 0
+0.000000 +0.000000 0
+0.000000 +0.000000 0
+0.000000 +0.000000 0
+0.000000 +0.000000 0
+0.000000 +0.000000 0
+0.000000 +0.000000 0
+0.000000 +0.000000 0
+0.000000 +0.000000 0
+0.000000 +0.000000 0
+0.000000 +0.000000 0
+0.000000 +0.000000 0
+0.000000 +0.000000 0
+0.000000 +0.000000 0
+0.000000 +0.000000 0
+0.000000 +0.000000 0
+0.000000 +0.000000 0
+0.000000 +0.000000 0
+0.000000 +0.000000 0
+0.000000 +0.000000 0
+0.000000 +0.000000 0
+0.000000 +0.000000 0
+0.000000 +0.000000 0
+0.000000 +0.000000 0
+0.000000 +0.000000 0
+0.000000 +0.000000 0
+0.000000 +0.000000 0
+0.000000 +0.000000 0
+0.000000 +0.000000 0
+0.000000 +0.000000 0
+0.000000 +0.000000 0
+0.000000 +0.000000 0
+0.000000 +0.000000 0
+0.000000 +0.000000 0
+0.000000 +0.000000 0
+0.000000 +0.000000 0
+0.000000 +0.000000 0
+0.000000 +0.000000 0
+0.000000 +0.000000 0
+0.000000 +0.000000 0
+0.000000 +0.000000 0
+0.000000 +0.000000 0
+0.000000 +0.000000 0
+0.000000 +0.000000 0
+0.000000 +0.000000 0
+0.000000 +0.000000 0
+0.000000 +0.000000 0
+0.000000 +0.000000 0
+0.000000 +0.000000 0
+0.000000 +0.000000 0
+0.000000 +0.000000 0
+0.000000 +0.000000 0
+0.000000 +0.000000 0
+0.000000 +0.000000 0
+0.000000 +0.000000 0
+0.000000 +0.000000 0
+0.000000 +0.000000 0
+0.000000 +0.000000 0
+0.000000 +0.000000 0
+0.000000 +0.000000 0
+0.000000 +0.000000 0
+0.000000 +0.000000 0
+0.000000 +0.000000 0
+0.000000 +0.000000 0
+0.000000 +0.000000 0
+0.000000 +0.000000 0
+0.000000 +0.000000 0
+0.000000 +0.000000 0
+0.000000 +0.000000 0
+0.000000 +0.000000 0
+0.000000 +0.000000 0
+0.000000 +0.000000 0
+0.000000 +0.000000 0
+0.000000 +0.000000 0
+0.000000 +0.000000 0
+0.000000 +0.000000 0
+0.000000 +0.000000 0
+0.000000 +0.000000 0
+0.000000 +0.000000 0
+0.000000 +0.000000 0
+0.000000 +0.000000 0
+0.000000 +0.000000 0
+0.000000 +0.000000 0
-0.044256 +0.284325 0
-0.056884 +0.476506 0
-0.022370 +0.522580 0
+0.050265 +0.427682 0
+0.130825 +0.250417 0
+0.181617 +0.073729 0
+0.175082 -0.033909 0
+0.107148 -0.048824 0
-0.094096 +0.493462 0
-0.127431 +0.818682 0
-0.069694 +0.878582 0
+0.063021 +0.686028 0
+0.214425 +0.352879 0
+0.313676 +0.035018 0
+0.308521 -0.140583 0
+0.190452 -0.132654 0
-0.149318 +0.580427 0
-0.214055 +0.944362 0
-0.150979 +0.969968 0
+0.019997 +0.681225 0
+0.223984 +0.232374 0
+0.365534 -0.166562 0
+0.373302 -0.348052 0
+0.234052 -0.263137 0
-0.201244 +0.542286 0
-0.302513 +0.852590 0
-0.251311 +0.804852 0
-0.067805 +0.435611 0
+0.164161 -0.074803 0
+0.336045 -0.487562 0
+0.365405 -0.617089 0
+0.234708 -0.416979 0
-0.234708 +0.416979 0
-0.365405 +0.617089 0
-0.336045 +0.487562 0
-0.164161 +0.074803 0
+0.067805 -0.435611 0
+0.251311 -0.804852 0
+0.302513 -0.852590 0
+0.201244 -0.542286 0
-0.234052 +0.263137 0
-0.373302 +0.348052 0
-0.365534 +0.166562 0
-0.223984 -0.232374 0
-0.019997 -0.681225 0
+0.150979 -0.969968 0
+0.214055 -0.944362 0
+0.149318 -0.580427 0
-0.190452 +0.132654 0
-0.308521 +0.140583 0
-0.313676 -0.035018 0
-0.214425 -0.352879 0
-0.063021 -0.686028 0
+0.069694 -0.878582 0
+0.127431 -0.818682 0
+0.094096 -0.493462 0
-0.107148 +0.048824 0
-0.175082 +0.033909 0
-0.181617 -0.073729 0
-0.130825 -0.250417 0
-0.050265 -0.427682 0
+0.022370 -0.522580 0
+0.056884 -0.476506 0
+0.044256 -0.284325 0
-0.024315 +0.148416 0
-0.021703 +0.147226 0
-0.011956 +0.076810 0
-0.056023 +0.396565 0
-0.027440 +0.247323 0
-0.027323 +0.205537 0
-0.045551 +0.518941 0
-0.009416 +0.272589 0
-0.021410 +0.269902 0
+0.010695 +0.490092 0
+0.027727 +0.225404 0
+0.007536 +0.256712 0
+0.091942 +0.344280 0
+0.068629 +0.135404 0
+0.048921 +0.183187 0
+0.162099 +0.156942 0
+0.094150 +0.044701 0
+0.084406 +0.087568 0
+0.186414 +0.008526 0
+0.090332 -0.011822 0
+0.096362 +0.010758 0
+0.147964 -0.052286 0
+0.055167 -0.021918 0
+0.076244 -0.022350 0
+0.056246 -0.028849 0
+0.028946 -0.013190 0
-0.051242 +0.258168 0
-0.068302 +0.402161 0
-0.037376 +0.210118 0
-0.121254 +0.685515 0
-0.089931 +0.671243 0
-0.087168 +0.560011 0
-0.110069 +0.883696 0
-0.041827 +0.729791 0
-0.074663 +0.728415 0
-0.009906 +0.808715 0
+0.063105 +0.586372 0
+0.005733 +0.679389 0
+0.140863 +0.527467 0
+0.180877 +0.327228 0
+0.123873 +0.463847 0
+0.274642 +0.182599 0
+0.256382 +0.073615 0
+0.227072 +0.192357 0
+0.325883 -0.075570 0
+0.249179 -0.074933 0
+0.264447 -0.017761 0
+0.262117 -0.158048 0
+0.153036 -0.084871 0
+0.211041 -0.096165 0
+0.100163 -0.074981 0
+0.080396 -0.049026 0
-0.080483 +0.304972 0
-0.121377 +0.553492 0
-0.065758 +0.290110 0
-0.196320 +0.800188 0
-0.169229 +0.910653 0
-0.158010 +0.766393 0
-0.198786 +1.001534 0
-0.106450 +0.959460 0
-0.151867 +0.975667 0
-0.075283 +0.857655 0
+0.048504 +0.717969 0
-0.037187 +0.868745 0
+0.123873 +0.463847 0
+0.228942 +0.320938 0
+0.140863 +0.527467 0
+0.308087 +0.014091 0
+0.350432 -0.045860 0
+0.301923 +0.122569 0
+0.388571 -0.290880 0
+0.350319 -0.232555 0
+0.367681 -0.167541 0
+0.320193 -0.336342 0
+0.217733 -0.192684 0
+0.298873 -0.238927 0
+0.123504 -0.143879 0
+0.114679 -0.106922 0
-0.107488 +0.287017 0
-0.176544 +0.575411 0
-0.094704 +0.303299 0
-0.269218 +0.737801 0
-0.259561 +0.922475 0
-0.234254 +0.788744 0
-0.296483 +0.875169 0
-0.200601 +0.914759 0
-0.248228 +0.964909 0
-0.172005 +0.651772 0
-0.020124 +0.582565 0
-0.121593 +0.781177 0
+0.048921 +0.183187 0
+0.201214 +0.095533 0
+0.091942 +0.344280 0
+0.263947 -0.307493 0
+0.359849 -0.318449 0
+0.294387 -0.134143 0
+0.371435 -0.594510 0
+0.377759 -0.479877 0
+0.389091 -0.437443 0
+0.318139 -0.554614 0
+0.239436 -0.339910 0
+0.326196 -0.444464 0
+0.124478 -0.223397 0
+0.126635 -0.183732 0
-0.124478 +0.223397 0
-0.221339 +0.487032 0
-0.117772 +0.259144 0
-0.318139 +0.554614 0
-0.339111 +0.746176 0
-0.298209 +0.656176 0
-0.371435 +0.594510 0
-0.298209 +0.656176 0
-0.339111 +0.746176 0
-0.263947 +0.307493 0
-0.117772 +0.259144 0
-0.221339 +0.487032 0
-0.048921 -0.183187 0
+0.117772 -0.259144 0
+0.000000 +0.000000 0
+0.172005 -0.651772 0
+0.298209 -0.656176 0
+0.221339 -0.487032 0
+0.296483 -0.875169 0
+0.339111 -0.746176 0
+0.339111 -0.746176 0
+0.269218 -0.737801 0
+0.221339 -0.487032 0
+0.298209 -0.656176 0
+0.107488 -0.287017 0
+0.117772 -0.259144 0
-0.123504 +0.143879 0
-0.239436 +0.339910 0
-0.126635 +0.183732 0
-0.320193 +0.336342 0
-0.377759 +0.479877 0
-0.326196 +0.444464 0
-0.388571 +0.290880 0
-0.359849 +0.318449 0
-0.389091 +0.437443 0
-0.308087 -0.014091 0
-0.201214 -0.095533 0
-0.294387 +0.134143 0
-0.123873 -0.463847 0
+0.020124 -0.582565 0
-0.091942 -0.344280 0
+0.075283 -0.857655 0
+0.200601 -0.914759 0
+0.121593 -0.781177 0
+0.198786 -1.001534 0
+0.259561 -0.922475 0
+0.248228 -0.964909 0
+0.196320 -0.800188 0
+0.176544 -0.575411 0
+0.234254 -0.788744 0
+0.080483 -0.304972 0
+0.094704 -0.303299 0
-0.100163 +0.074981 0
-0.217733 +0.192684 0
-0.114679 +0.106922 0
-0.262117 +0.158048 0
-0.350319 +0.232555 0
-0.298873 +0.238927 0
-0.325883 +0.075570 0
-0.350432 +0.045860 0
-0.367681 +0.167541 0
-0.274642 -0.182599 0
-0.228942 -0.320938 0
-0.301923 -0.122569 0
-0.140863 -0.527467 0
-0.048504 -0.717969 0
-0.140863 -0.527467 0
+0.009906 -0.808715 0
+0.106450 -0.959460 0
+0.037187 -0.868745 0
+0.110069 -0.883696 0
+0.169229 -0.910653 0
+0.151867 -0.975667 0
+0.121254 -0.685515 0
+0.121377 -0.553492 0
+0.158010 -0.766393 0
+0.051242 -0.258168 0
+0.065758 -0.290110 0
-0.056246 +0.028849 0
-0.153036 +0.084871 0
-0.080396 +0.049026 0
-0.147964 +0.052286 0
-0.249179 +0.074933 0
-0.211041 +0.096165 0
-0.186414 -0.008526 0
-0.256382 -0.073615 0
-0.264447 +0.017761 0
-0.162099 -0.156942 0
-0.180877 -0.327228 0
-0.227072 -0.192357 0
-0.091942 -0.344280 0
-0.063105 -0.586372 0
-0.123873 -0.463847 0
-0.010695 -0.490092 0
+0.041827 -0.729791 0
-0.005733 -0.679389 0
+0.045551 -0.518941 0
+0.089931 -0.671243 0
+0.074663 -0.728415 0
+0.056023 -0.396565 0
+0.068302 -0.402161 0
+0.087168 -0.560011 0
+0.024315 -0.148416 0
+0.037376 -0.210118 0
-0.055167 +0.021918 0
-0.028946 +0.013190 0
-0.090332 +0.011822 0
-0.076244 +0.022350 0
-0.094150 -0.044701 0
-0.096362 -0.010758 0
-0.068629 -0.135404 0
-0.084406 -0.087568 0
-0.027727 -0.225404 0
-0.048921 -0.183187 0
+0.009416 -0.272589 0
-0.007536 -0.256712 0
+0.027440 -0.247323 0
+0.021410 -0.269902 0
+0.021703 -0.147226 0
+0.027323 -0.205537 0
+0.011956 -0.076810 0
-0.006120 +0.038814 0
-0.005952 +0.038738 0
-0.012438 +0.075008 0
-0.018063 +0.113579 0
-0.035091 +0.218686 0
-0.032828 +0.217654 0
-0.017236 +0.113202 0
-0.010796 +0.074260 0
-0.025131 +0.178214 0
-0.013572 +0.103696 0
-0.051364 +0.344027 0
-0.041425 +0.303743 0
-0.057935 +0.441002 0
-0.041799 +0.365277 0
-0.028129 +0.228716 0
-0.013591 +0.124821 0
-0.025202 +0.261113 0
-0.010529 +0.136285 0
-0.052760 +0.502604 0
-0.032984 +0.398287 0
-0.035356 +0.525552 0
-0.015247 +0.401768 0
-0.016115 +0.273704 0
-0.004481 +0.137740 0
-0.001467 +0.266823 0
+0.004049 +0.129850 0
-0.006891 +0.510557 0
+0.009918 +0.377717 0
+0.029925 +0.462137 0
+0.039951 +0.330816 0
+0.017358 +0.242740 0
+0.014196 +0.114183 0
+0.038353 +0.205345 0
+0.024839 +0.093010 0
+0.071144 +0.387984 0
+0.071520 +0.267810 0
+0.112047 +0.297981 0
+0.100917 +0.196668 0
+0.059120 +0.159649 0
+0.034726 +0.069010 0
+0.077154 +0.111165 0
+0.042632 +0.044951 0
+0.147700 +0.202985 0
+0.124496 +0.125602 0
+0.173552 +0.113513 0
+0.139123 +0.062093 0
+0.090146 +0.065238 0
+0.047503 +0.023357 0
+0.096266 +0.026424 0
+0.048584 +0.006213 0
+0.185990 +0.038505 0
+0.142559 +0.012023 0
+0.182791 -0.015701 0
+0.133744 -0.020987 0
+0.094390 -0.002037 0
+0.045523 -0.005251 0
+0.084251 -0.018564 0
+0.038411 -0.010687 0
+0.163411 -0.046045 0
+0.112945 -0.035932 0
+0.129079 -0.053018 0
+0.081750 -0.034461 0
+0.066482 -0.023371 0
+0.027787 -0.010638 0
+0.042560 -0.018373 0
+0.014578 -0.006436 0
+0.082685 -0.040467 0
+0.042902 -0.020569 0
+0.028465 -0.014994 0
+0.014647 -0.006881 0
-0.019101 +0.106216 0
-0.030747 +0.180773 0
-0.026159 +0.130548 0
-0.044213 +0.236045 0
-0.074213 +0.380047 0
-0.080987 +0.451506 0
-0.054026 +0.309485 0
-0.056068 +0.346170 0
-0.079542 +0.486258 0
-0.071246 +0.482477 0
-0.110027 +0.596025 0
-0.103845 +0.628041 0
-0.127198 +0.760229 0
-0.108114 +0.751532 0
-0.090740 +0.622069 0
-0.072886 +0.579101 0
-0.084582 +0.706857 0
-0.059380 +0.629675 0
-0.121737 +0.860037 0
-0.091546 +0.813570 0
-0.092604 +0.889767 0
-0.054646 +0.812268 0
-0.060318 +0.735983 0
-0.031138 +0.632661 0
-0.019624 +0.710624 0
+0.009422 +0.591401 0
-0.041891 +0.851165 0
-0.000652 +0.752326 0
+0.025396 +0.753037 0
+0.064818 +0.644317 0
+0.033568 +0.637486 0
+0.058136 +0.513599 0
+0.093508 +0.527887 0
+0.109575 +0.410309 0
+0.101896 +0.610055 0
+0.134414 +0.503319 0
+0.178769 +0.440905 0
+0.199926 +0.347028 0
+0.153304 +0.396312 0
+0.157685 +0.294553 0
+0.205745 +0.258631 0
+0.196513 +0.179728 0
+0.246741 +0.265990 0
+0.253268 +0.193604 0
+0.297231 +0.104966 0
+0.287458 +0.059505 0
+0.244166 +0.130184 0
+0.220928 +0.078016 0
+0.263268 +0.023968 0
+0.227260 -0.001044 0
+0.323390 -0.025582 0
+0.297481 -0.042441 0
+0.320955 -0.114057 0
+0.280913 -0.104478 0
+0.259771 -0.050854 0
+0.213754 -0.051618 0
+0.232846 -0.089946 0
+0.180821 -0.072168 0
+0.288796 -0.155120 0
+0.238259 -0.124722 0
+0.229094 -0.150174 0
+0.172932 -0.107215 0
+0.184248 -0.094183 0
+0.131022 -0.065502 0
+0.118150 -0.069371 0
+0.068802 -0.038274 0
+0.147132 -0.107000 0
+0.090895 -0.061244 0
+0.050714 -0.038601 0
+0.040695 -0.025359 0
-0.033529 +0.146766 0
-0.058442 +0.276259 0
-0.040988 +0.154376 0
-0.073136 +0.299687 0
-0.117047 +0.448155 0
-0.135345 +0.571113 0
-0.095435 +0.426744 0
-0.107593 +0.527590 0
-0.142541 +0.667569 0
-0.139353 +0.731815 0
-0.176096 +0.698713 0
-0.177081 +0.789188 0
-0.209180 +0.882685 0
-0.191394 +0.934782 0
-0.167082 +0.847989 0
-0.147852 +0.871937 0
-0.164181 +0.953430 0
-0.130221 +0.937956 0
-0.210624 +0.984198 0
-0.174827 +0.996820 0
-0.178759 +0.996599 0
-0.127882 +0.973415 0
-0.132489 +0.977527 0
-0.086997 +0.927866 0
-0.074404 +0.922709 0
-0.022102 +0.847716 0
-0.116177 +0.923080 0
-0.055009 +0.871933 0
-0.029453 +0.776157 0
+0.035895 +0.707959 0
+0.004174 +0.799733 0
+0.057587 +0.710733 0
+0.094526 +0.626272 0
+0.143041 +0.535621 0
+0.071621 +0.576047 0
+0.134414 +0.503319 0
+0.175191 +0.348152 0
+0.228849 +0.283386 0
+0.186139 +0.424687 0
+0.224148 +0.344234 0
+0.267963 +0.219293 0
+0.290930 +0.158922 0
+0.268766 +0.119960 0
+0.307625 +0.073997 0
+0.340720 -0.082272 0
+0.360694 -0.101642 0
+0.329745 +0.033423 0
+0.334750 -0.000143 0
+0.363274 -0.113343 0
+0.349372 -0.117337 0
+0.381708 -0.236648 0
+0.380761 -0.225690 0
+0.385813 -0.328195 0
+0.364194 -0.287728 0
+0.363399 -0.207450 0
+0.331741 -0.183356 0
+0.328680 -0.242881 0
+0.282394 -0.196194 0
+0.351287 -0.350562 0
+0.311495 -0.285869 0
+0.280801 -0.306638 0
+0.227289 -0.226823 0
+0.261608 -0.221717 0
+0.205439 -0.161204 0
+0.168354 -0.153696 0
+0.108119 -0.090240 0
+0.181171 -0.208041 0
+0.119818 -0.124886 0
+0.062582 -0.073519 0
+0.058084 -0.054819 0
-0.048177 +0.153647 0
-0.087714 +0.306123 0
-0.054624 +0.145543 0
-0.101344 +0.296828 0
-0.156898 +0.420514 0
-0.189344 +0.562051 0
-0.137996 +0.445117 0
-0.163132 +0.581752 0
-0.209023 +0.690940 0
-0.215492 +0.799875 0
-0.239106 +0.649043 0
-0.252299 +0.767747 0
-0.290609 +0.806274 0
-0.281596 +0.892923 0
-0.251334 +0.866554 0
-0.236917 +0.940033 0
-0.258571 +0.955467 0
-0.223411 +0.990606 0
-0.304528 +0.875737 0
-0.272781 +0.925933 0
-0.278594 +0.851262 0
-0.226120 +0.865772 0
-0.228754 +0.951104 0
-0.175384 +0.950059 0
-0.164550 +0.857470 0
-0.097642 +0.826982 0
-0.215443 +0.737652 0
-0.146598 +0.722114 0
-0.122305 +0.550052 0
-0.043330 +0.514065 0
-0.072981 +0.688569 0
+0.001169 +0.638949 0
+0.035405 +0.466623 0
+0.109575 +0.410309 0
-0.010151 +0.312073 0
+0.071520 +0.267810 0
+0.107625 +0.052921 0
+0.184197 +0.013418 0
+0.147786 +0.219342 0
+0.214652 +0.169202 0
+0.250605 -0.023446 0
+0.303576 -0.055853 0
+0.216817 -0.196148 0
+0.281012 -0.218795 0
+0.304121 -0.405591 0
+0.349997 -0.401911 0
+0.331212 -0.233400 0
+0.365175 -0.239382 0
+0.379388 -0.387047 0
+0.391290 -0.361976 0
+0.358745 -0.551134 0
+0.382356 -0.515623 0
+0.373715 -0.616661 0
+0.373541 -0.548633 0
+0.388601 -0.468563 0
+0.377784 -0.412549 0
+0.356809 -0.471597 0
+0.325067 -0.389566 0
+0.346731 -0.596122 0
+0.323819 -0.499936 0
+0.280458 -0.494201 0
+0.238266 -0.378858 0
+0.286739 -0.399931 0
+0.238086 -0.301083 0
+0.185590 -0.266898 0
+0.125769 -0.163624 0
+0.182223 -0.325686 0
+0.126183 -0.203819 0
+0.063152 -0.113610 0
+0.064204 -0.093633 0
-0.059796 +0.131575 0
-0.113015 +0.274319 0
-0.063152 +0.113610 0
-0.121641 +0.242017 0
-0.182223 +0.325686 0
-0.229000 +0.453386 0
-0.172176 +0.378855 0
-0.212010 +0.517008 0
-0.263790 +0.580440 0
-0.284666 +0.700209 0
-0.280458 +0.494201 0
-0.309505 +0.607199 0
-0.346731 +0.596122 0
-0.353799 +0.683580 0
-0.323586 +0.712015 0
-0.321867 +0.803150 0
-0.344353 +0.757711 0
-0.318806 +0.814614 0
-0.373715 +0.616661 0
-0.356861 +0.672115 0
-0.358745 +0.551134 0
-0.318597 +0.573155 0
-0.323586 +0.712015 0
-0.275575 +0.734253 0
-0.263790 +0.580440 0
-0.197164 +0.572597 0
-0.304121 +0.405591 0
-0.243846 +0.397797 0
-0.216817 +0.196148 0
-0.141790 +0.166571 0
-0.172176 +0.378855 0
-0.092867 +0.349764 0
-0.059796 +0.131575 0
+0.024839 +0.093010 0
-0.107625 -0.052921 0
-0.024839 -0.093010 0
+0.010151 -0.312073 0
+0.092867 -0.349764 0
+0.059796 -0.131575 0
+0.141790 -0.166571 0
+0.172176 -0.378855 0
+0.243846 -0.397797 0
+0.122305 -0.550052 0
+0.197164 -0.572597 0
+0.215443 -0.737652 0
+0.275575 -0.734253 0
+0.263790 -0.580440 0
+0.318597 -0.573155 0
+0.323586 -0.712015 0
+0.356861 -0.672115 0
+0.278594 -0.851262 0
+0.318806 -0.814614 0
+0.304528 -0.875737 0
+0.321867 -0.803150 0
+0.344353 -0.757711 0
+0.353799 -0.683580 0
+0.323586 -0.712015 0
+0.309505 -0.607199 0
+0.290609 -0.806274 0
+0.284666 -0.700209 0
+0.239106 -0.649043 0
+0.212010 -0.517008 0
+0.263790 -0.580440 0
+0.229000 -0.453386 0
+0.172176 -0.378855 0
+0.121641 -0.242017 0
+0.156898 -0.420514 0
+0.113015 -0.274319 0
+0.054624 -0.145543 0
+0.059796 -0.131575 0
-0.064204 +0.093633 0
-0.126183 +0.203819 0
-0.062582 +0.073519 0
-0.125769 +0.163624 0
-0.181171 +0.208041 0
-0.238086 +0.301083 0
-0.185590 +0.266898 0
-0.238266 +0.378858 0
-0.286739 +0.399931 0
-0.323819 +0.499936 0
-0.280801 +0.306638 0
-0.325067 +0.389566 0
-0.351287 +0.350562 0
-0.377784 +0.412549 0
-0.356809 +0.471597 0
-0.373541 +0.548633 0
-0.388601 +0.468563 0
-0.382356 +0.515623 0
-0.385813 +0.328195 0
-0.391290 +0.361976 0
-0.381708 +0.236648 0
-0.365175 +0.239382 0
-0.379388 +0.387047 0
-0.349997 +0.401911 0
-0.331212 +0.233400 0
-0.281012 +0.218795 0
-0.340720 +0.082272 0
-0.303576 +0.055853 0
-0.268766 -0.119960 0
-0.214652 -0.169202 0
-0.250605 +0.023446 0
-0.184197 -0.013418 0
-0.147786 -0.219342 0
-0.071520 -0.267810 0
-0.175191 -0.348152 0
-0.109575 -0.410309 0
-0.071621 -0.576047 0
-0.001169 -0.638949 0
-0.035405 -0.466623 0
+0.043330 -0.514065 0
+0.072981 -0.688569 0
+0.146598 -0.722114 0
+0.029453 -0.776157 0
+0.097642 -0.826982 0
+0.116177 -0.923080 0
+0.175384 -0.950059 0
+0.164550 -0.857470 0
+0.226120 -0.865772 0
+0.228754 -0.951104 0
+0.272781 -0.925933 0
+0.178759 -0.996599 0
+0.223411 -0.990606 0
+0.210624 -0.984198 0
+0.236917 -0.940033 0
+0.258571 -0.955467 0
+0.281596 -0.892923 0
+0.251334 -0.866554 0
+0.252299 -0.767747 0
+0.209180 -0.882685 0
+0.215492 -0.799875 0
+0.176096 -0.698713 0
+0.163132 -0.581752 0
+0.209023 -0.690940 0
+0.189344 -0.562051 0
+0.137996 -0.445117 0
+0.101344 -0.296828 0
+0.117047 -0.448155 0
+0.087714 -0.306123 0
+0.040988 -0.154376 0
+0.048177 -0.153647 0
-0.058084 +0.054819 0
-0.119818 +0.124886 0
-0.050714 +0.038601 0
-0.108119 +0.090240 0
-0.147132 +0.107000 0
-0.205439 +0.161204 0
-0.168354 +0.153696 0
-0.227289 +0.226823 0
-0.261608 +0.221717 0
-0.311495 +0.285869 0
-0.229094 +0.150174 0
-0.282394 +0.196194 0
-0.288796 +0.155120 0
-0.331741 +0.183356 0
-0.328680 +0.242881 0
-0.364194 +0.287728 0
-0.363399 +0.207450 0
-0.380761 +0.225690 0
-0.320955 +0.114057 0
-0.349372 +0.117337 0
-0.323390 +0.025582 0
-0.334750 +0.000143 0
-0.363274 +0.113343 0
-0.360694 +0.101642 0
-0.329745 -0.033423 0
-0.307625 -0.073997 0
-0.297231 -0.104966 0
-0.290930 -0.158922 0
-0.246741 -0.265990 0
-0.224148 -0.344234 0
-0.267963 -0.219293 0
-0.228849 -0.283386 0
-0.186139 -0.424687 0
-0.134414 -0.503319 0
-0.178769 -0.440905 0
-0.143041 -0.535621 0
-0.101896 -0.610055 0
-0.057587 -0.710733 0
-0.094526 -0.626272 0
-0.035895 -0.707959 0
-0.004174 -0.799733 0
+0.055009 -0.871933 0
-0.025396 -0.753037 0
+0.022102 -0.847716 0
+0.041891 -0.851165 0
+0.086997 -0.927866 0
+0.074404 -0.922709 0
+0.127882 -0.973415 0
+0.132489 -0.977527 0
+0.174827 -0.996820 0
+0.092604 -0.889767 0
+0.130221 -0.937956 0
+0.121737 -0.860037 0
+0.147852 -0.871937 0