# vtk DataFile Version 2.0
MyTitle
ASCII
DATASET UNSTRUCTURED_GRID
POINTS 2165 double
2.000000 -1.000000 0.000000
2.000000 1.000000 0.000000
-2.000000 1.000000 0.000000
-2.000000 -1.000000 0.000000
2.000000 -0.888889 0.000000
2.000000 -0.777778 0.000000
2.000000 -0.666667 0.000000
2.000000 -0.555556 0.000000
2.000000 -0.444444 0.000000
2.000000 -0.333333 0.000000
2.000000 -0.222222 0.000000
2.000000 -0.111111 0.000000
2.000000 -0.000000 0.000000
2.000000 0.111111 0.000000
2.000000 0.222222 0.000000
2.000000 0.333333 0.000000
2.000000 0.444444 0.000000
2.000000 0.555556 0.000000
2.000000 0.666667 0.000000
2.000000 0.777778 0.000000
2.000000 0.888889 0.000000
2.000000 -0.944444 0.000000
2.000000 -0.833333 0.000000
2.000000 -0.722222 0.000000
2.000000 -0.611111 0.000000
2.000000 -0.500000 0.000000
2.000000 -0.388889 0.000000
2.000000 -0.277778 0.000000
2.000000 -0.166667 0.000000
2.000000 -0.055556 0.000000
2.000000 0.055556 0.000000
2.000000 0.166667 0.000000
2.000000 0.277778 0.000000
2.000000 0.388889 0.000000
2.000000 0.500000 0.000000
2.000000 0.611111 0.000000
2.000000 0.722222 0.000000
2.000000 0.833333 0.000000
2.000000 0.944444 0.000000
1.894737 1.000000 0.000000
1.789474 1.000000 0.000000
1.684211 1.000000 0.000000
1.578947 1.000000 0.000000
1.473684 1.000000 0.000000
1.368421 1.000000 0.000000
1.263158 1.000000 0.000000
1.157895 1.000000 0.000000
1.052632 1.000000 0.000000
0.947368 1.000000 0.000000
0.842105 1.000000 0.000000
0.736842 1.000000 0.000000
0.631579 1.000000 0.000000
0.526316 1.000000 0.000000
0.421053 1.000000 0.000000
0.315789 1.000000 0.000000
0.210526 1.000000 0.000000
0.105263 1.000000 0.000000
0.000000 1.000000 0.000000
-0.105263 1.000000 0.000000
-0.210526 1.000000 0.000000
-0.315789 1.000000 0.000000
-0.421053 1.000000 0.000000
-0.526316 1.000000 0.000000
-0.631579 1.000000 0.000000
-0.736842 1.000000 0.000000
-0.842105 1.000000 0.000000
-0.947368 1.000000 0.000000
-1.052632 1.000000 0.000000
-1.157895 1.000000 0.000000
-1.263158 1.000000 0.000000
-1.368421 1.000000 0.000000
-1.473684 1.000000 0.000000
-1.578947 1.000000 0.000000
-1.684211 1.000000 0.000000
-1.789474 1.000000 0.000000
-1.894737 1.000000 0.000000
1.947368 1.000000 0.000000
1.842105 1.000000 0.000000
1.736842 1.000000 0.000000
1.631579 1.000000 0.000000
1.526316 1.000000 0.000000
1.421053 1.000000 0.000000
1.315789 1.000000 0.000000
1.210526 1.000000 0.000000
1.105263 1.000000 0.000000
1.000000 1.000000 0.000000
0.894737 1.000000 0.000000
0.789474 1.000000 0.000000
0.684211 1.000000 0.000000
0.578947 1.000000 0.000000
0.473684 1.000000 0.000000
0.368421 1.000000 0.000000
0.263158 1.000000 0.000000
0.157895 1.000000 0.000000
0.052632 1.000000 0.000000
-0.052632 1.000000 0.000000
-0.157895 1.000000 0.000000
-0.263158 1.000000 0.000000
-0.368421 1.000000 0.000000
-0.473684 1.000000 0.000000
-0.578947 1.000000 0.000000
-0.684211 1.000000 0.000000
-0.789474 1.000000 0.000000
-0.894737 1.000000 0.000000
-1.000000 1.000000 0.000000
-1.105263 1.000000 0.000000
-1.210526 1.000000 0.000000
-1.315789 1.000000 0.000000
-1.421053 1.000000 0.000000
-1.526316 1.000000 0.000000
-1.631579 1.000000 0.000000
-1.736842 1.000000 0.000000
-1.842105 1.000000 0.000000
-1.947368 1.000000 0.000000
-2.000000 0.888889 0.000000
-2.000000 0.777778 0.000000
-2.000000 0.666667 0.000000
-2.000000 0.555556 0.000000
-2.000000 0.444444 0.000000
-2.000000 0.333333 0.000000
-2.000000 0.222222 0.000000
-2.000000 0.111111 0.000000
-2.000000 0.000000 0.000000
-2.000000 -0.111111 0.000000
-2.000000 -0.222222 0.000000
-2.000000 -0.333333 0.000000
-2.000000 -0.444444 0.000000
-2.000000 -0.555556 0.000000
-2.000000 -0.666667 0.000000
-2.000000 -0.777778 0.000000
-2.000000 -0.888889 0.000000
-2.000000 0.944444 0.000000
-2.000000 0.833333 0.000000
-2.000000 0.722222 0.000000
-2.000000 0.611111 0.000000
-2.000000 0.500000 0.000000
-2.000000 0.388889 0.000000
-2.000000 0.277778 0.000000
-2.000000 0.166667 0.000000
-2.000000 0.055556 0.000000
-2.000000 -0.055556 0.000000
-2.000000 -0.166667 0.000000
-2.000000 -0.277778 0.000000
-2.000000 -0.388889 0.000000
-2.000000 -0.500000 0.000000
-2.000000 -0.611111 0.000000
-2.000000 -0.722222 0.000000
-2.000000 -0.833333 0.000000
-2.000000 -0.944444 0.000000
-1.894737 -1.000000 0.000000
-1.789474 -1.000000 0.000000
-1.684211 -1.000000 0.000000
-1.578947 -1.000000 0.000000
-1.473684 -1.000000 0.000000
-1.368421 -1.000000 0.000000
-1.263158 -1.000000 0.000000
-1.157895 -1.000000 0.000000
-1.052632 -1.000000 0.000000
-0.947368 -1.000000 0.000000
-0.842105 -1.000000 0.000000
-0.736842 -1.000000 0.000000
-0.631579 -1.000000 0.000000
-0.526316 -1.000000 0.000000
-0.421053 -1.000000 0.000000
-0.315789 -1.000000 0.000000
-0.210526 -1.000000 0.000000
-0.105263 -1.000000 0.000000
-0.000000 -1.000000 0.000000
0.105263 -1.000000 0.000000
0.210526 -1.000000 0.000000
0.315789 -1.000000 0.000000
0.421053 -1.000000 0.000000
0.526316 -1.000000 0.000000
0.631579 -1.000000 0.000000
0.736842 -1.000000 0.000000
0.842105 -1.000000 0.000000
0.947368 -1.000000 0.000000
1.052632 -1.000000 0.000000
1.157895 -1.000000 0.000000
1.263158 -1.000000 0.000000
1.368421 -1.000000 0.000000
1.473684 -1.000000 0.000000
1.578947 -1.000000 0.000000
1.684211 -1.000000 0.000000
1.789474 -1.000000 0.000000
1.894737 -1.000000 0.000000
-1.947368 -1.000000 0.000000
-1.842105 -1.000000 0.000000
-1.736842 -1.000000 0.000000
-1.631579 -1.000000 0.000000
-1.526316 -1.000000 0.000000
-1.421053 -1.000000 0.000000
-1.315789 -1.000000 0.000000
-1.210526 -1.000000 0.000000
-1.105263 -1.000000 0.000000
-1.000000 -1.000000 0.000000
-0.894737 -1.000000 0.000000
-0.789474 -1.000000 0.000000
-0.684211 -1.000000 0.000000
-0.578947 -1.000000 0.000000
-0.473684 -1.000000 0.000000
-0.368421 -1.000000 0.000000
-0.263158 -1.000000 0.000000
-0.157895 -1.000000 0.000000
-0.052632 -1.000000 0.000000
0.052632 -1.000000 0.000000
0.157895 -1.000000 0.000000
0.263158 -1.000000 0.000000
0.368421 -1.000000 0.000000
0.473684 -1.000000 0.000000
0.578947 -1.000000 0.000000
0.684211 -1.000000 0.000000
0.789474 -1.000000 0.000000
0.894737 -1.000000 0.000000
1.000000 -1.000000 0.000000
1.105263 -1.000000 0.000000
1.210526 -1.000000 0.000000
1.315789 -1.000000 0.000000
1.421053 -1.000000 0.000000
1.526316 -1.000000 0.000000
1.631579 -1.000000 0.000000
1.736842 -1.000000 0.000000
1.842105 -1.000000 0.000000
1.947368 -1.000000 0.000000
-1.789474 0.777778 0.000000
-1.578947 0.777778 0.000000
-1.368421 0.777778 0.000000
-1.157895 0.777778 0.000000
-0.947368 0.777778 0.000000
-0.736842 0.777778 0.000000
-0.526316 0.777778 0.000000
-0.315789 0.777778 0.000000
-0.105263 0.777778 0.000000
0.105263 0.777778 0.000000
0.315789 0.777778 0.000000
0.526316 0.777778 0.000000
0.736842 0.777778 0.000000
0.947368 0.777778 0.000000
1.157895 0.777778 0.000000
1.368421 0.777778 0.000000
1.578947 0.777778 0.000000
1.789474 0.777778 0.000000
-1.789474 0.555556 0.000000
-1.578947 0.555556 0.000000
-1.368421 0.555556 0.000000
-1.157895 0.555556 0.000000
-0.947368 0.555556 0.000000
-0.736842 0.555556 0.000000
-0.526316 0.555556 0.000000
-0.315789 0.555556 0.000000
-0.105263 0.555556 0.000000
0.105263 0.555556 0.000000
0.315789 0.555556 0.000000
0.526316 0.555556 0.000000
0.736842 0.555556 0.000000
0.947368 0.555556 0.000000
1.157895 0.555556 0.000000
1.368421 0.555556 0.000000
1.578947 0.555556 0.000000
1.789474 0.555556 0.000000
-1.789474 0.333333 0.000000
-1.578947 0.333333 0.000000
-1.368421 0.333333 0.000000
-1.157895 0.333333 0.000000
-0.947368 0.333333 0.000000
-0.736842 0.333333 0.000000
-0.526316 0.333333 0.000000
-0.315789 0.333333 0.000000
-0.105263 0.333333 0.000000
0.105263 0.333333 0.000000
0.315789 0.333333 0.000000
0.526316 0.333333 0.000000
0.736842 0.333333 0.000000
0.947368 0.333333 0.000000
1.157895 0.333333 0.000000
1.368421 0.333333 0.000000
1.578947 0.333333 0.000000
1.789474 0.333333 0.000000
-1.789474 0.111111 0.000000
-1.578947 0.111111 0.000000
-1.368421 0.111111 0.000000
-1.157895 0.111111 0.000000
-0.947368 0.111111 0.000000
-0.736842 0.111111 0.000000
-0.526316 0.111111 0.000000
-0.315789 0.111111 0.000000
-0.105263 0.111111 0.000000
0.105263 0.111111 0.000000
0.315789 0.111111 0.000000
0.526316 0.111111 0.000000
0.736842 0.111111 0.000000
0.947368 0.111111 0.000000
1.157895 0.111111 0.000000
1.368421 0.111111 0.000000
1.578947 0.111111 0.000000
1.789474 0.111111 0.000000
-1.789474 -0.111111 0.000000
-1.578947 -0.111111 0.000000
-1.368421 -0.111111 0.000000
-1.157895 -0.111111 0.000000
-0.947368 -0.111111 0.000000
-0.736842 -0.111111 0.000000
-0.526316 -0.111111 0.000000
-0.315789 -0.111111 0.000000
-0.105263 -0.111111 0.000000
0.105263 -0.111111 0.000000
0.315789 -0.111111 0.000000
0.526316 -0.111111 0.000000
0.736842 -0.111111 0.000000
0.947368 -0.111111 0.000000
1.157895 -0.111111 0.000000
1.368421 -0.111111 0.000000
1.578947 -0.111111 0.000000
1.789474 -0.111111 0.000000
-1.789474 -0.333333 0.000000
-1.578947 -0.333333 0.000000
-1.368421 -0.333333 0.000000
-1.157895 -0.333333 0.000000
-0.947368 -0.333333 0.000000
-0.736842 -0.333333 0.000000
-0.526316 -0.333333 0.000000
-0.315789 -0.333333 0.000000
-0.105263 -0.333333 0.000000
0.105263 -0.333333 0.000000
0.315789 -0.333333 0.000000
0.526316 -0.333333 0.000000
0.736842 -0.333333 0.000000
0.947368 -0.333333 0.000000
1.157895 -0.333333 0.000000
1.368421 -0.333333 0.000000
1.578947 -0.333333 0.000000
1.789474 -0.333333 0.000000
-1.789474 -0.555556 0.000000
-1.578947 -0.555556 0.000000
-1.368421 -0.555556 0.000000
-1.157895 -0.555556 0.000000
-0.947368 -0.555556 0.000000
-0.736842 -0.555556 0.000000
-0.526316 -0.555556 0.000000
-0.315789 -0.555556 0.000000
-0.105263 -0.555556 0.000000
0.105263 -0.555556 0.000000
0.315789 -0.555556 0.000000
0.526316 -0.555556 0.000000
0.736842 -0.555556 0.000000
0.947368 -0.555556 0.000000
1.157895 -0.555556 0.000000
1.368421 -0.555556 0.000000
1.578947 -0.555556 0.000000
1.789474 -0.555556 0.000000
-1.789474 -0.777778 0.000000
-1.578947 -0.777778 0.000000
-1.368421 -0.777778 0.000000
-1.157895 -0.777778 0.000000
[...]
POINT_DATA 2165
VECTORS sol double
+0.000000 +0.000000 0
+0.000000 +0.000000 0
+0.000000 +0.000000 0
+0.000000 +0.000000 0
+0.000000 +0.000000 0
+0.000000 +0.000000 0
+0.000000 +0.000000 0
+0.000000 +0.000000 0
+0.000000 +0.000000 0
+0.000000 +0.000000 0
+0.000000 +0.000000 0
+0.000000 +0.000000 0
+0.000000 +0.000000 0
+0.000000 +0.000000 0
+0.000000 +0.000000 0
+0.000000 +0.000000 0
+0.000000 +0.000000 0
+0.000000 +0.000000 0
+0.000000 +0.000000 0
+0.000000 +0.000000 0
+0.000000 +0.000000 0
+0.000000 +0.000000 0
+0.000000 +0.000000 0
+0.000000 +0.000000 0
+0.000000 +0.000000 0
+0.000000 +0.000000 0
+0.000000 +0.000000 0
+0.000000 +0.000000 0
+0.000000 +0.000000 0
+0.000000 +0.000000 0
+0.000000 +0.000000 0
+0.000000 +0.000000 0
+0.000000 +0.000000 0
+0.000000 +0.000000 0
+0.000000 +0.000000 0
+0.000000 +0.000000 0
+0.000000 +0.000000 0
+0.000000 +0.000000 0
+0.000000 +0.000000 0
+0.000000 +0.000000 0
+0.000000 +0.000000 0
+0.000000 +0.000000 0
+0.000000 +0.000000 0
+0.000000 +0.000000 0
+0.000000 +0.000000 0
+0.000000 +0.000000 0
+0.000000 +0.000000 0
+0.000000 +0.000000 0
+0.000000 +0.000000 0
+0.000000 +0.000000 0
+0.000000 +0.000000 0
+0.000000 +0.000000 0
+0.000000 +0.000000 0
+0.000000 +0.000000 0
+0.000000 +0.000000 0
+0.000000 +0.000000 0
+0.000000 +0.000000 0
+0.000000 +0.000000 0
+0.000000 +0.000000 0
+0.000000 +0.000000 0
+0.000000 +0.000000 0
+0.000000 +0.000000 0
+0.000000 +0.000000 0
+0.000000 +0.000000 0
+0.000000 +0.000000 0
+0.000000 +0.000000 0
+0.000000 +0.000000 0
+0.000000 +0.000000 0
+0.000000 +0.000000 0
+0.000000 +0.000000 0
+0.000000 +0.000000 0
+0.000000 +0.000000 0
+0.000000 +0.000000 0
+0.000000 +0.000000 0
+0.000000 +0.000000 0
+0.000000 +0.000000 0
+0.000000 +0.000000 0
+0.000000 +0.000000 0
+0.000000 +0.000000 0
+0.000000 +0.000000 0
+0.000000 +0.000000 0
+0.000000 +0.000000 0
+0.000000 +0.000000 0
+0.000000 +0.000000 0
+0.000000 +0.000000 0
+0.000000 +0.000000 0
+0.000000 +0.000000 0
+0.000000 +0.000000 0
+0.000000 +0.000000 0
+0.000000 +0.000000 0
+0.000000 +0.000000 0
+0.000000 +0.000000 0
+0.000000 +0.000000 0
+0.000000 +0.000000 0
+0.000000 +0.000000 0
+0.000000 +0.000000 0
+0.000000 +0.000000 0
+0.000000 +0.000000 0
+0.000000 +0.000000 0
+0.000000 +0.000000 0
+0.000000 +0.000000 0
+0.000000 +0.000000 0
+0.000000 +0.000000 0
+0.000000 +0.000000 0
+0.000000 +0.000000 0
+0.000000 +0.000000 0
+0.000000 +0.000000 0
+0.000000 +0.000000 0
+0.000000 +0.000000 0
+0.000000 +0.000000 0
+0.000000 +0.000000 0
+0.000000 +0.000000 0
+0.000000 +0.000000 0
+0.000000 +0.000000 0
+0.000000 +0.000000 0
+0.000000 +0.000000 0
+0.000000 +0.000000 0
+0.000000 +0.000000 0
+0.000000 +0.000000 0
+0.000000 +0.000000 0
+0.000000 +0.000000 0
+0.000000 +0.000000 0
+0.000000 +0.000000 0
+0.000000 +0.000000 0
+0.000000 +0.000000 0
+0.000000 +0.000000 0
+0.000000 +0.000000 0
+0.000000 +0.000000 0
+0.000000 +0.000000 0
+0.000000 +0.000000 0
+0.000000 +0.000000 0
+0.000000 +0.000000 0
+0.000000 +0.000000 0
+0.000000 +0.000000 0
+0.000000 +0.000000 0
+0.000000 +0.000000 0
+0.000000 +0.000000 0
+0.000000 +0.000000 0
+0.000000 +0.000000 0
+0.000000 +0.000000 0
+0.000000 +0.000000 0
+0.000000 +0.000000 0
+0.000000 +0.000000 0
+0.000000 +0.000000 0
+0.000000 +0.000000 0
+0.000000 +0.000000 0
+0.000000 +0.000000 0
+0.000000 +0.000000 0
+0.000000 +0.000000 0
+0.000000 +0.000000 0
+0.000000 +0.000000 0
+0.000000 +0.000000 0
+0.000000 +0.000000 0
+0.000000 +0.000000 0
+0.000000 +0.000000 0
+0.000000 +0.000000 0
+0.000000 +0.000000 0
+0.000000 +0.000000 0
+0.000000 +0.000000 0
+0.000000 +0.000000 0
+0.000000 +0.000000 0
+0.000000 +0.000000 0
+0.000000 +0.000000 0
+0.000000 +0.000000 0
+0.000000 +0.000000 0
+0.000000 +0.000000 0
+0.000000 +0.000000 0
+0.000000 +0.000000 0
+0.000000 +0.000000 0
+0.000000 +0.000000 0
+0.000000 +0.000000 0
+0.000000 +0.000000 0
+0.000000 +0.000000 0
+0.000000 +0.000000 0
+0.000000 +0.000000 0
+0.000000 +0.000000 0
+0.000000 +0.000000 0
+0.000000 +0.000000 0
+0.000000 +0.000000 0
+0.000000 +0.000000 0
+0.000000 +0.000000 0
+0.000000 +0.000000 0
+0.000000 +0.000000 0
+0.000000 +0.000000 0
+0.000000 +0.000000 0
+0.000000 +0.000000 0
+0.000000 +0.000000 0
+0.000000 +0.000000 0
+0.000000 +0.000000 0
+0.000000 +0.000000 0
+0.000000 +0.000000 0
+0.000000 +0.000000 0
+0.000000 +0.000000 0
+0.000000 +0.000000 0
+0.000000 +0.000000 0
+0.000000 +0.000000 0
+0.000000 +0.000000 0
+0.000000 +0.000000 0
+0.000000 +0.000000 0
+0.000000 +0.000000 0
+0.000000 +0.000000 0
+0.000000 +0.000000 0
+0.000000 +0.000000 0
+0.000000 +0.000000 0
+0.000000 +0.000000 0
+0.000000 +0.000000 0
+0.000000 +0.000000 0
+0.000000 +0.000000 0
+0.000000 +0.000000 0
+0.000000 +0.000000 0
+0.000000 +0.000000 0
+0.000000 +0.000000 0
+0.000000 +0.000000 0
+0.000000 +0.000000 0
+0.000000 +0.000000 0
+0.000000 +0.000000 0
+0.000000 +0.000000 0
+0.000000 +0.000000 0
+0.000000 +0.000000 0
+0.000000 +0.000000 0
+0.000000 +0.000000 0
+0.000000 +0.000000 0
+0.000000 +0.000000 0
+0.000000 +0.000000 0
+0.113732 -0.017720 0
+0.200049 -0.031169 0
+0.238144 -0.037104 0
+0.218833 -0.034096 0
+0.146772 -0.022868 0
+0.039332 -0.006128 0
-0.077590 +0.012089 0
-0.175809 +0.027392 0
-0.231648 +0.036092 0
-0.231648 +0.036092 0
-0.175809 +0.027392 0
-0.077590 +0.012089 0
+0.039332 -0.006128 0
+0.146772 -0.022868 0
+0.218833 -0.034096 0
+0.238144 -0.037104 0
+0.200049 -0.031169 0
+0.113732 -0.017720 0
+0.213747 -0.033303 0
+0.375970 -0.058579 0
+0.447564 -0.069734 0
+0.411272 -0.064079 0
+0.275842 -0.042978 0
+0.073919 -0.011517 0
-0.145822 +0.022720 0
-0.330412 +0.051481 0
-0.435356 +0.067831 0
-0.435356 +0.067831 0
-0.330412 +0.051481 0
-0.145822 +0.022720 0
+0.073919 -0.011517 0
+0.275842 -0.042978 0
+0.411272 -0.064079 0
+0.447564 -0.069734 0
+0.375970 -0.058579 0
+0.213747 -0.033303 0
+0.287981 -0.044869 0
+0.506543 -0.078923 0
+0.603002 -0.093952 0
+0.554105 -0.086333 0
+0.371641 -0.057904 0
+0.099591 -0.015517 0
-0.196465 +0.030611 0
-0.445163 +0.069359 0
-0.586553 +0.091389 0
-0.586553 +0.091389 0
-0.445163 +0.069359 0
-0.196465 +0.030611 0
+0.099591 -0.015517 0
+0.371641 -0.057904 0
+0.554105 -0.086333 0
+0.603002 -0.093952 0
+0.506543 -0.078923 0
+0.287981 -0.044869 0
+0.327480 -0.051024 0
+0.576019 -0.089748 0
+0.685708 -0.106838 0
+0.630105 -0.098175 0
+0.422614 -0.065846 0
+0.113251 -0.017645 0
-0.223412 +0.034809 0
-0.506221 +0.078873 0
-0.667004 +0.103924 0
-0.667004 +0.103924 0
-0.506221 +0.078873 0
-0.223412 +0.034809 0
+0.113251 -0.017645 0
+0.422614 -0.065846 0
+0.630105 -0.098175 0
+0.685708 -0.106838 0
+0.576019 -0.089748 0
+0.327480 -0.051024 0
+0.327480 -0.051024 0
+0.576019 -0.089748 0
+0.685708 -0.106838 0
+0.630105 -0.098175 0
+0.422614 -0.065846 0
+0.113251 -0.017645 0
-0.223412 +0.034809 0
-0.506221 +0.078873 0
-0.667004 +0.103924 0
-0.667004 +0.103924 0
-0.506221 +0.078873 0
-0.223412 +0.034809 0
+0.113251 -0.017645 0
+0.422614 -0.065846 0
+0.630105 -0.098175 0
+0.685708 -0.106838 0
+0.576019 -0.089748 0
+0.327480 -0.051024 0
+0.287981 -0.044869 0
+0.506543 -0.078923 0
+0.603002 -0.093952 0
+0.554105 -0.086333 0
+0.371641 -0.057904 0
+0.099591 -0.015517 0
-0.196465 +0.030611 0
-0.445163 +0.069359 0
-0.586553 +0.091389 0
-0.586553 +0.091389 0
-0.445163 +0.069359 0
-0.196465 +0.030611 0
+0.099591 -0.015517 0
+0.371641 -0.057904 0
+0.554105 -0.086333 0
+0.603002 -0.093952 0
+0.506543 -0.078923 0
+0.287981 -0.044869 0
+0.213747 -0.033303 0
+0.375970 -0.058579 0
+0.447564 -0.069734 0
+0.411272 -0.064079 0
+0.275842 -0.042978 0
+0.073919 -0.011517 0
-0.145822 +0.022720 0
-0.330412 +0.051481 0
-0.435356 +0.067831 0
-0.435356 +0.067831 0
-0.330412 +0.051481 0
-0.145822 +0.022720 0
+0.073919 -0.011517 0
+0.275842 -0.042978 0
+0.411272 -0.064079 0
+0.447564 -0.069734 0
+0.375970 -0.058579 0
+0.213747 -0.033303 0
+0.113732 -0.017720 0
+0.200049 -0.031169 0
+0.238144 -0.037104 0
+0.218833 -0.034096 0
+0.146772 -0.022868 0
+0.039332 -0.006128 0
-0.077590 +0.012089 0
-0.175809 +0.027392 0
-0.231648 +0.036092 0
-0.231648 +0.036092 0
-0.175809 +0.027392 0
-0.077590 +0.012089 0
+0.039332 -0.006128 0
+0.146772 -0.022868 0
+0.218833 -0.034096 0
+0.238144 -0.037104 0
+0.200049 -0.031169 0
+0.113732 -0.017720 0
+0.058661 -0.009140 0
+0.057743 -0.008997 0
+0.029783 -0.004640 0
+0.161843 -0.025216 0
+0.101568 -0.015825 0
+0.082170 -0.012803 0
+0.226013 -0.035214 0
+0.120909 -0.018838 0
+0.114750 -0.017879 0
+0.235701 -0.036724 0
+0.111105 -0.017311 0
+0.119669 -0.018645 0
+0.188573 -0.029381 0
+0.074518 -0.011610 0
+0.095741 -0.014917 0
+0.095989 -0.014956 0
+0.019969 -0.003111 0
+0.048735 -0.007593 0
-0.019733 +0.003075 0
-0.039394 +0.006138 0
-0.010019 +0.001561 0
-0.130699 +0.020364 0
-0.089260 +0.013907 0
-0.066358 +0.010339 0
-0.210159 +0.032744 0
-0.117611 +0.018325 0
-0.106701 +0.016625 0
-0.238960 +0.037232 0
-0.117611 +0.018325 0
-0.121323 +0.018903 0
-0.210159 +0.032744 0
-0.089260 +0.013907 0
-0.106701 +0.016625 0
-0.130699 +0.020364 0
-0.039394 +0.006138 0
-0.066358 +0.010339 0
-0.019733 +0.003075 0
+0.019969 -0.003111 0
-0.010019 +0.001561 0
+0.095989 -0.014956 0
+0.074518 -0.011610 0
+0.048735 -0.007593 0
+0.188573 -0.029381 0
+0.111105 -0.017311 0
+0.095741 -0.014917 0
+0.235701 -0.036724 0
+0.120909 -0.018838 0
+0.119669 -0.018645 0
+0.226013 -0.035214 0
+0.101568 -0.015825 0
+0.114750 -0.017879 0
+0.161843 -0.025216 0
+0.057743 -0.008997 0
+0.082170 -0.012803 0
+0.058661 -0.009140 0
+0.029783 -0.004640 0
+0.110247 -0.017177 0
+0.166266 -0.025905 0
+0.085757 -0.013362 0
+0.304166 -0.047391 0
+0.292453 -0.045566 0
+0.236599 -0.036864 0
+0.424765 -0.066181 0
+0.348143 -0.054243 0
+0.330408 -0.051480 0
+0.442973 -0.069018 0
+0.319913 -0.049845 0
+0.344572 -0.053687 0
+0.354402 -0.055218 0
+0.214567 -0.033431 0
+0.275675 -0.042952 0
+0.180401 -0.028108 0
+0.057499 -0.008959 0
+0.140327 -0.021864 0
-0.037086 +0.005778 0
-0.113429 +0.017673 0
-0.028848 +0.004495 0
-0.245633 +0.038271 0
-0.257015 +0.040045 0
-0.191069 +0.029770 0
-0.394970 +0.061539 0
-0.338647 +0.052763 0
-0.307232 +0.047869 0
-0.449098 +0.069973 0
-0.338647 +0.052763 0
-0.349336 +0.054429 0
-0.394970 +0.061539 0
-0.257015 +0.040045 0
-0.307232 +0.047869 0
-0.245633 +0.038271 0
-0.113429 +0.017673 0
-0.191069 +0.029770 0
-0.037086 +0.005778 0
+0.057499 -0.008959 0
-0.028848 +0.004495 0
+0.180401 -0.028108 0
+0.214567 -0.033431 0
+0.140327 -0.021864 0
+0.354402 -0.055218 0
+0.319913 -0.049845 0
+0.275675 -0.042952 0
+0.442973 -0.069018 0
+0.348143 -0.054243 0
+0.344572 -0.053687 0
+0.424765 -0.066181 0
+0.292453 -0.045566 0
+0.330408 -0.051480 0
+0.304166 -0.047391 0
+0.166266 -0.025905 0
+0.236599 -0.036864 0
+0.110247 -0.017177 0
+0.085757 -0.013362 0
+0.148535 -0.023143 0
+0.254734 -0.039689 0
+0.131387 -0.020471 0
+0.409802 -0.063850 0
+0.448063 -0.069811 0
+0.362491 -0.056479 0
+0.572284 -0.089166 0
+0.533386 -0.083105 0
+0.506215 -0.078872 0
+0.596816 -0.092988 0
+0.490135 -0.076366 0
+0.527915 -0.082253 0
+0.477484 -0.074395 0
+0.328735 -0.051219 0
+0.422359 -0.065806 0
+0.243053 -0.037869 0
+0.088093 -0.013726 0
+0.214993 -0.033497 0
-0.049966 +0.007785 0
-0.173784 +0.027077 0
-0.044198 +0.006886 0
-0.330941 +0.051563 0
-0.393770 +0.061352 0
-0.292734 +0.045610 0
-0.532142 +0.082911 0
-0.518837 +0.080838 0
-0.470707 +0.073339 0
-0.605068 +0.094274 0
-0.518837 +0.080838 0
-0.535214 +0.083390 0
-0.532142 +0.082911 0
-0.393770 +0.061352 0
-0.470707 +0.073339 0
-0.330941 +0.051563 0
-0.173784 +0.027077 0
-0.292734 +0.045610 0
-0.049966 +0.007785 0
+0.088093 -0.013726 0
-0.044198 +0.006886 0
+0.243053 -0.037869 0
+0.328735 -0.051219 0
+0.214993 -0.033497 0
+0.477484 -0.074395 0
+0.490135 -0.076366 0
+0.422359 -0.065806 0
+0.596816 -0.092988 0
+0.533386 -0.083105 0
+0.527915 -0.082253 0
+0.572284 -0.089166 0
+0.448063 -0.069811 0
+0.506215 -0.078872 0
+0.409802 -0.063850 0
+0.254734 -0.039689 0
+0.362491 -0.056479 0
+0.148535 -0.023143 0
+0.131387 -0.020471 0
+0.168908 -0.026317 0
+0.312477 -0.048686 0
+0.161170 -0.025111 0
+0.466009 -0.072607 0
+0.549631 -0.085636 0
+0.444661 -0.069281 0
+0.650777 -0.101396 0
+0.654295 -0.101944 0
+0.620964 -0.096751 0
+0.678674 -0.105742 0
+0.601240 -0.093677 0
+0.647583 -0.100898 0
+0.542975 -0.084599 0
+0.403254 -0.062830 0
+0.518100 -0.080724 0
+0.276390 -0.043063 0
+0.108063 -0.016837 0
+0.263728 -0.041091 0
-0.056819 +0.008853 0
-0.213177 +0.033215 0
-0.054216 +0.008447 0
-0.376332 +0.058635 0
-0.483030 +0.075259 0
-0.359092 +0.055949 0
-0.605129 +0.094283 0
-0.636448 +0.099163 0
-0.577407 +0.089964 0
-0.688058 +0.107204 0
-0.636448 +0.099163 0
-0.656538 +0.102293 0
-0.605129 +0.094283 0
-0.483030 +0.075259 0
-0.577407 +0.089964 0
-0.376332 +0.058635 0
-0.213177 +0.033215 0
-0.359092 +0.055949 0
-0.056819 +0.008853 0
+0.108063 -0.016837 0
-0.054216 +0.008447 0
+0.276390 -0.043063 0
+0.403254 -0.062830 0
+0.263728 -0.041091 0
+0.542975 -0.084599 0
+0.601240 -0.093677 0
+0.518100 -0.080724 0
+0.678674 -0.105742 0
+0.654295 -0.101944 0
+0.647583 -0.100898 0
+0.650777 -0.101396 0
+0.549631 -0.085636 0
+0.620964 -0.096751 0
+0.466009 -0.072607 0
+0.312477 -0.048686 0
+0.444661 -0.069281 0
+0.168908 -0.026317 0
+0.161170 -0.025111 0
+0.168908 -0.026317 0
+0.332531 -0.051811 0
+0.171514 -0.026723 0
+0.466009 -0.072607 0
+0.584905 -0.091132 0
+0.473198 -0.073728 0
+0.650777 -0.101396 0
+0.696286 -0.108486 0
+0.660817 -0.102960 0
+0.678674 -0.105742 0
+0.639826 -0.099689 0
+0.689144 -0.107373 0
+0.542975 -0.084599 0
+0.429134 -0.066862 0
+0.551351 -0.085904 0
+0.276390 -0.043063 0
+0.114998 -0.017917 0
+0.280654 -0.043728 0
-0.056819 +0.008853 0
-0.226859 +0.035346 0
-0.057696 +0.008989 0
-0.376332 +0.058635 0
-0.514030 +0.080089 0
-0.382138 +0.059540 0
-0.605129 +0.094283 0
-0.677293 +0.105527 0
-0.614464 +0.095738 0
-0.688058 +0.107204 0
-0.677293 +0.105527 0
-0.698673 +0.108858 0
-0.605129 +0.094283 0
-0.514030 +0.080089 0
-0.614464 +0.095738 0
-0.376332 +0.058635 0
-0.226859 +0.035346 0
-0.382138 +0.059540 0
-0.056819 +0.008853 0
+0.114998 -0.017917 0
-0.057696 +0.008989 0
+0.276390 -0.043063 0
+0.429134 -0.066862 0
+0.280654 -0.043728 0
+0.542975 -0.084599 0
+0.639826 -0.099689 0
+0.551351 -0.085904 0
+0.678674 -0.105742 0
+0.696286 -0.108486 0
+0.689144 -0.107373 0
+0.650777 -0.101396 0
+0.584905 -0.091132 0
+0.660817 -0.102960 0
+0.466009 -0.072607 0
+0.332531 -0.051811 0
+0.473198 -0.073728 0
+0.168908 -0.026317 0
+0.171514 -0.026723 0
+0.148535 -0.023143 0
+0.312477 -0.048686 0
+0.161170 -0.025111 0
+0.409802 -0.063850 0
+0.549631 -0.085636 0
+0.444661 -0.069281 0
+0.572284 -0.089166 0
+0.654295 -0.101944 0
+0.620964 -0.096751 0
+0.596816 -0.092988 0
+0.601240 -0.093677 0
+0.647583 -0.100898 0
+0.477484 -0.074395 0
+0.403254 -0.062830 0
+0.518100 -0.080724 0
+0.243053 -0.037869 0
+0.108063 -0.016837 0
+0.263728 -0.041091 0
-0.049966 +0.007785 0
-0.213177 +0.033215 0
-0.054216 +0.008447 0
-0.330941 +0.051563 0
-0.483030 +0.075259 0
-0.359092 +0.055949 0
-0.532142 +0.082911 0
-0.636448 +0.099163 0
-0.577407 +0.089964 0
-0.605068 +0.094274 0
-0.636448 +0.099163 0
-0.656538 +0.102293 0
-0.532142 +0.082911 0
-0.483030 +0.075259 0
-0.577407 +0.089964 0
-0.330941 +0.051563 0
-0.213177 +0.033215 0
-0.359092 +0.055949 0
-0.049966 +0.007785 0
+0.108063 -0.016837 0
-0.054216 +0.008447 0
+0.243053 -0.037869 0
+0.403254 -0.062830 0
+0.263728 -0.041091 0
+0.477484 -0.074395 0
+0.601240 -0.093677 0
+0.518100 -0.080724 0
+0.596816 -0.092988 0
+0.654295 -0.101944 0
+0.647583 -0.100898 0
+0.572284 -0.089166 0
+0.549631 -0.085636 0
+0.620964 -0.096751 0
+0.409802 -0.063850 0
+0.312477 -0.048686 0
+0.444661 -0.069281 0
+0.148535 -0.023143 0
+0.161170 -0.025111 0
+0.110247 -0.017177 0
+0.254734 -0.039689 0
+0.131387 -0.020471 0
+0.304166 -0.047391 0
+0.448063 -0.069811 0
+0.362491 -0.056479 0
+0.424765 -0.066181 0
+0.533386 -0.083105 0
+0.506215 -0.078872 0
+0.442973 -0.069018 0
+0.490135 -0.076366 0
+0.527915 -0.082253 0
+0.354402 -0.055218 0
+0.328735 -0.051219 0
+0.422359 -0.065806 0
+0.180401 -0.028108 0
+0.088093 -0.013726 0
+0.214993 -0.033497 0
-0.037086 +0.005778 0
-0.173784 +0.027077 0
-0.044198 +0.006886 0
-0.245633 +0.038271 0
-0.393770 +0.061352 0
-0.292734 +0.045610 0
-0.394970 +0.061539 0
-0.518837 +0.080838 0
-0.470707 +0.073339 0
-0.449098 +0.069973 0
-0.518837 +0.080838 0
-0.535214 +0.083390 0
-0.394970 +0.061539 0
-0.393770 +0.061352 0
-0.470707 +0.073339 0
-0.245633 +0.038271 0
-0.173784 +0.027077 0
-0.292734 +0.045610 0
-0.037086 +0.005778 0
+0.088093 -0.013726 0
-0.044198 +0.006886 0
+0.180401 -0.028108 0
+0.328735 -0.051219 0
+0.214993 -0.033497 0
+0.354402 -0.055218 0
+0.490135 -0.076366 0
+0.422359 -0.065806 0
+0.442973 -0.069018 0
+0.533386 -0.083105 0
+0.527915 -0.082253 0
+0.424765 -0.066181 0
+0.448063 -0.069811 0
+0.506215 -0.078872 0
+0.304166 -0.047391 0
+0.254734 -0.039689 0
+0.362491 -0.056479 0
+0.110247 -0.017177 0
+0.131387 -0.020471 0
+0.058661 -0.009140 0
+0.166266 -0.025905 0
+0.085757 -0.013362 0
+0.161843 -0.025216 0
+0.292453 -0.045566 0
+0.236599 -0.036864 0
+0.226013 -0.035214 0
+0.348143 -0.054243 0
+0.330408 -0.051480 0
+0.235701 -0.036724 0
+0.319913 -0.049845 0
+0.344572 -0.053687 0
+0.188573 -0.029381 0
+0.214567 -0.033431 0
+0.275675 -0.042952 0
+0.095989 -0.014956 0
+0.057499 -0.008959 0
+0.140327 -0.021864 0
-0.019733 +0.003075 0
-0.113429 +0.017673 0
-0.028848 +0.004495 0
-0.130699 +0.020364 0
-0.257015 +0.040045 0
-0.191069 +0.029770 0
-0.210159 +0.032744 0
-0.338647 +0.052763 0
-0.307232 +0.047869 0
-0.238960 +0.037232 0
-0.338647 +0.052763 0
-0.349336 +0.054429 0
-0.210159 +0.032744 0
-0.257015 +0.040045 0
-0.307232 +0.047869 0
-0.130699 +0.020364 0
-0.113429 +0.017673 0
-0.191069 +0.029770 0
-0.019733 +0.003075 0
+0.057499 -0.008959 0
-0.028848 +0.004495 0
+0.095989 -0.014956 0
+0.214567 -0.033431 0
+0.140327 -0.021864 0
+0.188573 -0.029381 0
+0.319913 -0.049845 0
+0.275675 -0.042952 0
+0.235701 -0.036724 0
+0.348143 -0.054243 0
+0.344572 -0.053687 0
+0.226013 -0.035214 0
+0.292453 -0.045566 0
+0.330408 -0.051480 0
+0.161843 -0.025216 0
+0.166266 -0.025905 0
+0.236599 -0.036864 0
+0.058661 -0.009140 0
+0.085757 -0.013362 0
+0.057743 -0.008997 0
+0.029783 -0.004640 0
+0.101568 -0.015825 0
+0.082170 -0.012803 0
+0.120909 -0.018838 0
+0.114750 -0.017879 0
+0.111105 -0.017311 0
+0.119669 -0.018645 0
+0.074518 -0.011610 0
+0.095741 -0.014917 0
+0.019969 -0.003111 0
+0.048735 -0.007593 0
-0.039394 +0.006138 0
-0.010019 +0.001561 0
-0.089260 +0.013907 0
-0.066358 +0.010339 0
-0.117611 +0.018325 0
-0.106701 +0.016625 0
-0.117611 +0.018325 0
-0.121323 +0.018903 0
-0.089260 +0.013907 0
-0.106701 +0.016625 0
-0.039394 +0.006138 0
-0.066358 +0.010339 0
+0.019969 -0.003111 0
-0.010019 +0.001561 0
+0.074518 -0.011610 0
+0.048735 -0.007593 0
+0.111105 -0.017311 0
+0.095741 -0.014917 0
+0.120909 -0.018838 0
+0.119669 -0.018645 0
+0.101568 -0.015825 0
+0.114750 -0.017879 0
+0.057743 -0.008997 0
+0.082170 -0.012803 0
+0.029783 -0.004640 0
+0.015007 -0.002338 0
+0.014949 -0.002329 0
+0.029558 -0.004605 0
+0.044392 -0.006917 0
+0.086865 -0.013534 0
+0.086067 -0.013410 0
+0.044103 -0.006872 0
+0.028983 -0.004516 0
+0.070499 -0.010984 0
+0.041243 -0.006426 0
+0.138857 -0.021635 0
+0.122475 -0.019082 0
+0.182350 -0.028411 0
+0.151388 -0.023587 0
+0.092581 -0.014425 0
+0.050979 -0.007943 0
+0.108998 -0.016983 0
+0.057595 -0.008974 0
+0.214683 -0.033449 0
+0.171035 -0.026648 0
+0.233878 -0.036440 0
+0.180216 -0.028079 0
+0.118743 -0.018501 0
+0.060687 -0.009455 0
+0.121222 -0.018887 0
+0.060064 -0.009358 0
+0.238760 -0.037200 0
+0.178367 -0.027791 0
+0.229030 -0.035684 0
+0.165602 -0.025802 0
+0.116282 -0.018117 0
+0.055766 -0.008689 0
+0.104225 -0.016239 0
+0.048054 -0.007487 0
+0.205283 -0.031985 0
+0.142703 -0.022234 0
+0.168973 -0.026327 0
+0.111070 -0.017305 0
+0.085790 -0.013367 0
+0.037402 -0.005828 0
+0.062105 -0.009676 0
+0.024461 -0.003811 0
+0.122322 -0.019059 0
+0.072640 -0.011318 0
+0.068185 -0.010624 0
+0.029764 -0.004637 0
+0.034619 -0.005394 0
+0.010023 -0.001562 0
+0.005014 -0.000781 0
-0.005029 +0.000783 0
+0.009875 -0.001539 0
-0.014933 +0.002327 0
-0.049039 +0.007641 0
-0.058716 +0.009148 0