# vtk DataFile Version 2.0
MyTitle
ASCII
DATASET UNSTRUCTURED_GRID
POINTS 1045 double
1.000000 -1.000000 0.000000
1.000000 1.000000 0.000000
-1.000000 1.000000 0.000000
-1.000000 -1.000000 0.000000
1.000000 -0.888889 0.000000
1.000000 -0.777778 0.000000
1.000000 -0.666667 0.000000
1.000000 -0.555556 0.000000
1.000000 -0.444444 0.000000
1.000000 -0.333333 0.000000
1.000000 -0.222222 0.000000
1.000000 -0.111111 0.000000
1.000000 -0.000000 0.000000
1.000000 0.111111 0.000000
1.000000 0.222222 0.000000
1.000000 0.333333 0.000000
1.000000 0.444444 0.000000
1.000000 0.555556 0.000000
1.000000 0.666667 0.000000
1.000000 0.777778 0.000000
1.000000 0.888889 0.000000
1.000000 -0.944444 0.000000
1.000000 -0.833333 0.000000
1.000000 -0.722222 0.000000
1.000000 -0.611111 0.000000
1.000000 -0.500000 0.000000
1.000000 -0.388889 0.000000
1.000000 -0.277778 0.000000
1.000000 -0.166667 0.000000
1.000000 -0.055556 0.000000
1.000000 0.055556 0.000000
1.000000 0.166667 0.000000
1.000000 0.277778 0.000000
1.000000 0.388889 0.000000
1.000000 0.500000 0.000000
1.000000 0.611111 0.000000
1.000000 0.722222 0.000000
1.000000 0.833333 0.000000
1.000000 0.944444 0.000000
0.888889 1.000000 0.000000
0.777778 1.000000 0.000000
0.666667 1.000000 0.000000
0.555556 1.000000 0.000000
0.444444 1.000000 0.000000
0.333333 1.000000 0.000000
0.222222 1.000000 0.000000
0.111111 1.000000 0.000000
0.000000 1.000000 0.000000
-0.111111 1.000000 0.000000
-0.222222 1.000000 0.000000
-0.333333 1.000000 0.000000
-0.444444 1.000000 0.000000
-0.555556 1.000000 0.000000
-0.666667 1.000000 0.000000
-0.777778 1.000000 0.000000
-0.888889 1.000000 0.000000
0.944444 1.000000 0.000000
0.833333 1.000000 0.000000
0.722222 1.000000 0.000000
0.611111 1.000000 0.000000
0.500000 1.000000 0.000000
0.388889 1.000000 0.000000
0.277778 1.000000 0.000000
0.166667 1.000000 0.000000
0.055556 1.000000 0.000000
-0.055556 1.000000 0.000000
-0.166667 1.000000 0.000000
-0.277778 1.000000 0.000000
-0.388889 1.000000 0.000000
-0.500000 1.000000 0.000000
-0.611111 1.000000 0.000000
-0.722222 1.000000 0.000000
-0.833333 1.000000 0.000000
-0.944444 1.000000 0.000000
-1.000000 0.888889 0.000000
-1.000000 0.777778 0.000000
-1.000000 0.666667 0.000000
-1.000000 0.555556 0.000000
-1.000000 0.444444 0.000000
-1.000000 0.333333 0.000000
-1.000000 0.222222 0.000000
-1.000000 0.111111 0.000000
-1.000000 0.000000 0.000000
-1.000000 -0.111111 0.000000
-1.000000 -0.222222 0.000000
-1.000000 -0.333333 0.000000
-1.000000 -0.444444 0.000000
-1.000000 -0.555556 0.000000
-1.000000 -0.666667 0.000000
-1.000000 -0.777778 0.000000
-1.000000 -0.888889 0.000000
-1.000000 0.944444 0.000000
-1.000000 0.833333 0.000000
-1.000000 0.722222 0.000000
-1.000000 0.611111 0.000000
-1.000000 0.500000 0.000000
-1.000000 0.388889 0.000000
-1.000000 0.277778 0.000000
-1.000000 0.166667 0.000000
-1.000000 0.055556 0.000000
-1.000000 -0.055556 0.000000
-1.000000 -0.166667 0.000000
-1.000000 -0.277778 0.000000
-1.000000 -0.388889 0.000000
-1.000000 -0.500000 0.000000
-1.000000 -0.611111 0.000000
-1.000000 -0.722222 0.000000
-1.000000 -0.833333 0.000000
-1.000000 -0.944444 0.000000
-0.888889 -1.000000 0.000000
-0.777778 -1.000000 0.000000
-0.666667 -1.000000 0.000000
-0.555556 -1.000000 0.000000
-0.444444 -1.000000 0.000000
-0.333333 -1.000000 0.000000
-0.222222 -1.000000 0.000000
-0.111111 -1.000000 0.000000
-0.000000 -1.000000 0.000000
0.111111 -1.000000 0.000000
0.222222 -1.000000 0.000000
0.333333 -1.000000 0.000000
0.444444 -1.000000 0.000000
0.555556 -1.000000 0.000000
0.666667 -1.000000 0.000000
0.777778 -1.000000 0.000000
0.888889 -1.000000 0.000000
-0.944444 -1.000000 0.000000
-0.833333 -1.000000 0.000000
-0.722222 -1.000000 0.000000
-0.611111 -1.000000 0.000000
-0.500000 -1.000000 0.000000
-0.388889 -1.000000 0.000000
-0.277778 -1.000000 0.000000
-0.166667 -1.000000 0.000000
-0.055556 -1.000000 0.000000
0.055556 -1.000000 0.000000
0.166667 -1.000000 0.000000
0.277778 -1.000000 0.000000
0.388889 -1.000000 0.000000
0.500000 -1.000000 0.000000
0.611111 -1.000000 0.000000
0.722222 -1.000000 0.000000
0.833333 -1.000000 0.000000
0.944444 -1.000000 0.000000
-0.777778 0.777778 0.000000
-0.555556 0.777778 0.000000
-0.333333 0.777778 0.000000
-0.111111 0.777778 0.000000
0.111111 0.777778 0.000000
0.333333 0.777778 0.000000
0.555556 0.777778 0.000000
0.777778 0.777778 0.000000
-0.777778 0.555556 0.000000
-0.555556 0.555556 0.000000
-0.333333 0.555556 0.000000
-0.111111 0.555556 0.000000
0.111111 0.555556 0.000000
0.333333 0.555556 0.000000
0.555556 0.555556 0.000000
0.777778 0.555556 0.000000
-0.777778 0.333333 0.000000
-0.555556 0.333333 0.000000
-0.333333 0.333333 0.000000
-0.111111 0.333333 0.000000
0.111111 0.333333 0.000000
0.333333 0.333333 0.000000
0.555556 0.333333 0.000000
0.777778 0.333333 0.000000
-0.777778 0.111111 0.000000
-0.555556 0.111111 0.000000
-0.333333 0.111111 0.000000
-0.111111 0.111111 0.000000
0.111111 0.111111 0.000000
0.333333 0.111111 0.000000
0.555556 0.111111 0.000000
0.777778 0.111111 0.000000
-0.777778 -0.111111 0.000000
-0.555556 -0.111111 0.000000
-0.333333 -0.111111 0.000000
-0.111111 -0.111111 0.000000
0.111111 -0.111111 0.000000
0.333333 -0.111111 0.000000
0.555556 -0.111111 0.000000
0.777778 -0.111111 0.000000
-0.777778 -0.333333 0.000000
-0.555556 -0.333333 0.000000
-0.333333 -0.333333 0.000000
-0.111111 -0.333333 0.000000
0.111111 -0.333333 0.000000
0.333333 -0.333333 0.000000
0.555556 -0.333333 0.000000
0.777778 -0.333333 0.000000
-0.777778 -0.555556 0.000000
-0.555556 -0.555556 0.000000
-0.333333 -0.555556 0.000000
-0.111111 -0.555556 0.000000
0.111111 -0.555556 0.000000
0.333333 -0.555556 0.000000
0.555556 -0.555556 0.000000
0.777778 -0.555556 0.000000
-0.777778 -0.777778 0.000000
-0.555556 -0.777778 0.000000
-0.333333 -0.777778 0.000000
-0.111111 -0.777778 0.000000
0.111111 -0.777778 0.000000
0.333333 -0.777778 0.000000
0.555556 -0.777778 0.000000
0.777778 -0.777778 0.000000
-0.888889 0.777778 0.000000
-0.777778 0.888889 0.000000
-0.888889 0.888889 0.000000
-0.666667 0.777778 0.000000
-0.555556 0.888889 0.000000
-0.666667 0.888889 0.000000
-0.444444 0.777778 0.000000
-0.333333 0.888889 0.000000
-0.444444 0.888889 0.000000
-0.222222 0.777778 0.000000
-0.111111 0.888889 0.000000
-0.222222 0.888889 0.000000
0.000000 0.777778 0.000000
0.111111 0.888889 0.000000
0.000000 0.888889 0.000000
0.222222 0.777778 0.000000
0.333333 0.888889 0.000000
0.222222 0.888889 0.000000
0.444444 0.777778 0.000000
0.555556 0.888889 0.000000
0.444444 0.888889 0.000000
0.666667 0.777778 0.000000
0.777778 0.888889 0.000000
0.666667 0.888889 0.000000
0.888889 0.777778 0.000000
0.888889 0.888889 0.000000
-0.888889 0.555556 0.000000
-0.777778 0.666667 0.000000
-0.888889 0.666667 0.000000
-0.666667 0.555556 0.000000
-0.555556 0.666667 0.000000
-0.666667 0.666667 0.000000
-0.444444 0.555556 0.000000
-0.333333 0.666667 0.000000
-0.444444 0.666667 0.000000
-0.222222 0.555556 0.000000
-0.111111 0.666667 0.000000
-0.222222 0.666667 0.000000
0.000000 0.555556 0.000000
0.111111 0.666667 0.000000
0.000000 0.666667 0.000000
0.222222 0.555556 0.000000
0.333333 0.666667 0.000000
0.222222 0.666667 0.000000
0.444444 0.555556 0.000000
0.555556 0.666667 0.000000
0.444444 0.666667 0.000000
0.666667 0.555556 0.000000
0.777778 0.666667 0.000000
0.666667 0.666667 0.000000
0.888889 0.555556 0.000000
0.888889 0.666667 0.000000
-0.888889 0.333333 0.000000
-0.777778 0.444444 0.000000
-0.888889 0.444444 0.000000
-0.666667 0.333333 0.000000
-0.555556 0.444444 0.000000
-0.666667 0.444444 0.000000
-0.444444 0.333333 0.000000
-0.333333 0.444444 0.000000
-0.444444 0.444444 0.000000
-0.222222 0.333333 0.000000
-0.111111 0.444444 0.000000
-0.222222 0.444444 0.000000
0.000000 0.333333 0.000000
0.111111 0.444444 0.000000
0.000000 0.444444 0.000000
0.222222 0.333333 0.000000
0.333333 0.444444 0.000000
0.222222 0.444444 0.000000
0.444444 0.333333 0.000000
0.555556 0.444444 0.000000
0.444444 0.444444 0.000000
0.666667 0.333333 0.000000
0.777778 0.444444 0.000000
0.666667 0.444444 0.000000
0.888889 0.333333 0.000000
0.888889 0.444444 0.000000
-0.888889 0.111111 0.000000
-0.777778 0.222222 0.000000
-0.888889 0.222222 0.000000
-0.666667 0.111111 0.000000
-0.555556 0.222222 0.000000
-0.666667 0.222222 0.000000
-0.444444 0.111111 0.000000
-0.333333 0.222222 0.000000
-0.444444 0.222222 0.000000
-0.222222 0.111111 0.000000
-0.111111 0.222222 0.000000
-0.222222 0.222222 0.000000
0.000000 0.111111 0.000000
0.111111 0.222222 0.000000
0.000000 0.222222 0.000000
0.222222 0.111111 0.000000
0.333333 0.222222 0.000000
0.222222 0.222222 0.000000
0.444444 0.111111 0.000000
0.555556 0.222222 0.000000
0.444444 0.222222 0.000000
0.666667 0.111111 0.000000
0.777778 0.222222 0.000000
0.666667 0.222222 0.000000
0.888889 0.111111 0.000000
0.888889 0.222222 0.000000
-0.888889 -0.111111 0.000000
-0.777778 0.000000 0.000000
-0.888889 0.000000 0.000000
-0.666667 -0.111111 0.000000
-0.555556 0.000000 0.000000
-0.666667 0.000000 0.000000
-0.444444 -0.111111 0.000000
-0.333333 0.000000 0.000000
-0.444444 0.000000 0.000000
-0.222222 -0.111111 0.000000
-0.111111 0.000000 0.000000
-0.222222 0.000000 0.000000
-0.000000 -0.111111 0.000000
0.111111 -0.000000 0.000000
-0.000000 -0.000000 0.000000
0.222222 -0.111111 0.000000
0.333333 -0.000000 0.000000
0.222222 -0.000000 0.000000
0.444444 -0.111111 0.000000
0.555556 -0.000000 0.000000
0.444444 -0.000000 0.000000
0.666667 -0.111111 0.000000
0.777778 -0.000000 0.000000
0.666667 -0.000000 0.000000
0.888889 -0.111111 0.000000
0.888889 -0.000000 0.000000
-0.888889 -0.333333 0.000000
-0.777778 -0.222222 0.000000
-0.888889 -0.222222 0.000000
-0.666667 -0.333333 0.000000
-0.555556 -0.222222 0.000000
-0.666667 -0.222222 0.000000
-0.444444 -0.333333 0.000000
-0.333333 -0.222222 0.000000
-0.444444 -0.222222 0.000000
-0.222222 -0.333333 0.000000
-0.111111 -0.222222 0.000000
-0.222222 -0.222222 0.000000
-0.000000 -0.333333 0.000000
0.111111 -0.222222 0.000000
-0.000000 -0.222222 0.000000
0.222222 -0.333333 0.000000
0.333333 -0.222222 0.000000
[...]
POINT_DATA 1045
VECTORS sol double
+0.000000 +0.000000 0
+0.000000 +0.000000 0
+0.000000 +0.000000 0
+0.000000 +0.000000 0
+0.000000 +0.000000 0
+0.000000 +0.000000 0
+0.000000 +0.000000 0
+0.000000 +0.000000 0
+0.000000 +0.000000 0
+0.000000 +0.000000 0
+0.000000 +0.000000 0
+0.000000 +0.000000 0
+0.000000 +0.000000 0
+0.000000 +0.000000 0
+0.000000 +0.000000 0
+0.000000 +0.000000 0
+0.000000 +0.000000 0
+0.000000 +0.000000 0
+0.000000 +0.000000 0
+0.000000 +0.000000 0
+0.000000 +0.000000 0
+0.000000 +0.000000 0
+0.000000 +0.000000 0
+0.000000 +0.000000 0
+0.000000 +0.000000 0
+0.000000 +0.000000 0
+0.000000 +0.000000 0
+0.000000 +0.000000 0
+0.000000 +0.000000 0
+0.000000 +0.000000 0
+0.000000 +0.000000 0
+0.000000 +0.000000 0
+0.000000 +0.000000 0
+0.000000 +0.000000 0
+0.000000 +0.000000 0
+0.000000 +0.000000 0
+0.000000 +0.000000 0
+0.000000 +0.000000 0
+0.000000 +0.000000 0
+0.000000 +0.000000 0
+0.000000 +0.000000 0
+0.000000 +0.000000 0
+0.000000 +0.000000 0
+0.000000 +0.000000 0
+0.000000 +0.000000 0
+0.000000 +0.000000 0
+0.000000 +0.000000 0
+0.000000 +0.000000 0
+0.000000 +0.000000 0
+0.000000 +0.000000 0
+0.000000 +0.000000 0
+0.000000 +0.000000 0
+0.000000 +0.000000 0
+0.000000 +0.000000 0
+0.000000 +0.000000 0
+0.000000 +0.000000 0
+0.000000 +0.000000 0
+0.000000 +0.000000 0
+0.000000 +0.000000 0
+0.000000 +0.000000 0
+0.000000 +0.000000 0
+0.000000 +0.000000 0
+0.000000 +0.000000 0
+0.000000 +0.000000 0
+0.000000 +0.000000 0
+0.000000 +0.000000 0
+0.000000 +0.000000 0
+0.000000 +0.000000 0
+0.000000 +0.000000 0
+0.000000 +0.000000 0
+0.000000 +0.000000 0
+0.000000 +0.000000 0
+0.000000 +0.000000 0
+0.000000 +0.000000 0
+0.000000 +0.000000 0
+0.000000 +0.000000 0
+0.000000 +0.000000 0
+0.000000 +0.000000 0
+0.000000 +0.000000 0
+0.000000 +0.000000 0
+0.000000 +0.000000 0
+0.000000 +0.000000 0
+0.000000 +0.000000 0
+0.000000 +0.000000 0
+0.000000 +0.000000 0
+0.000000 +0.000000 0
+0.000000 +0.000000 0
+0.000000 +0.000000 0
+0.000000 +0.000000 0
+0.000000 +0.000000 0
+0.000000 +0.000000 0
+0.000000 +0.000000 0
+0.000000 +0.000000 0
+0.000000 +0.000000 0
+0.000000 +0.000000 0
+0.000000 +0.000000 0
+0.000000 +0.000000 0
+0.000000 +0.000000 0
+0.000000 +0.000000 0
+0.000000 +0.000000 0
+0.000000 +0.000000 0
+0.000000 +0.000000 0
+0.000000 +0.000000 0
+0.000000 +0.000000 0
+0.000000 +0.000000 0
+0.000000 +0.000000 0
+0.000000 +0.000000 0
+0.000000 +0.000000 0
+0.000000 +0.000000 0
+0.000000 +0.000000 0
+0.000000 +0.000000 0
+0.000000 +0.000000 0
+0.000000 +0.000000 0
+0.000000 +0.000000 0
+0.000000 +0.000000 0
+0.000000 +0.000000 0
+0.000000 +0.000000 0
+0.000000 +0.000000 0
+0.000000 +0.000000 0
+0.000000 +0.000000 0
+0.000000 +0.000000 0
+0.000000 +0.000000 0
+0.000000 +0.000000 0
+0.000000 +0.000000 0
+0.000000 +0.000000 0
+0.000000 +0.000000 0
+0.000000 +0.000000 0
+0.000000 +0.000000 0
+0.000000 +0.000000 0
+0.000000 +0.000000 0
+0.000000 +0.000000 0
+0.000000 +0.000000 0
+0.000000 +0.000000 0
+0.000000 +0.000000 0
+0.000000 +0.000000 0
+0.000000 +0.000000 0
+0.000000 +0.000000 0
+0.000000 +0.000000 0
+0.000000 +0.000000 0
+0.000000 +0.000000 0
+0.000000 +0.000000 0
+0.000000 +0.000000 0
+0.000000 +0.000000 0
+0.000000 +0.000000 0
+0.268402 -0.063932 0
+0.466951 -0.085901 0
+0.551755 -0.045031 0
+0.519512 +0.047419 0
+0.404666 +0.152375 0
+0.260953 +0.220726 0
+0.136263 +0.216307 0
+0.052561 +0.133320 0
+0.448696 -0.132202 0
+0.772833 -0.184086 0
+0.895835 -0.115139 0
+0.815882 +0.054425 0
+0.600041 +0.251677 0
+0.349306 +0.384321 0
+0.151344 +0.383879 0
+0.043048 +0.238510 0
+0.489481 -0.202987 0
+0.825019 -0.294761 0
+0.915647 -0.218103 0
+0.767971 +0.001712 0
+0.477170 +0.267469 0
+0.179311 +0.454817 0
-0.012311 +0.470457 0
-0.057048 +0.296473 0
+0.396135 -0.265522 0
+0.636570 -0.400393 0
+0.634882 -0.335866 0
+0.411216 -0.097950 0
+0.080529 +0.204258 0
-0.202449 +0.429352 0
-0.315607 +0.469780 0
-0.225354 +0.302443 0
+0.225354 -0.302443 0
+0.315607 -0.469780 0
+0.202449 -0.429352 0
-0.080529 -0.204258 0
-0.411216 +0.097950 0
-0.634882 +0.335866 0
-0.636570 +0.400393 0
-0.396135 +0.265522 0
+0.057048 -0.296473 0
+0.012311 -0.470457 0
-0.179311 -0.454817 0
-0.477170 -0.267469 0
-0.767971 -0.001712 0
-0.915647 +0.218103 0
-0.825019 +0.294761 0
-0.489481 +0.202987 0
-0.043048 -0.238510 0
-0.151344 -0.383879 0
-0.349306 -0.384321 0
-0.600041 -0.251677 0
-0.815882 -0.054425 0
-0.895835 +0.115139 0
-0.772833 +0.184086 0
-0.448696 +0.132202 0
-0.052561 -0.133320 0
-0.136263 -0.216307 0
-0.260953 -0.220726 0
-0.404666 -0.152375 0
-0.519512 -0.047419 0
-0.551755 +0.045031 0
-0.466951 +0.085901 0
-0.268402 +0.063932 0
+0.138902 -0.034863 0
+0.140183 -0.031614 0
+0.072508 -0.017271 0
+0.380010 -0.082160 0
+0.244429 -0.042024 0
+0.198655 -0.040477 0
+0.524785 -0.073398 0
+0.290038 -0.020721 0
+0.275202 -0.035371 0
+0.548841 -0.003306 0
+0.275027 +0.026510 0
+0.289401 +0.000645 0
+0.469217 +0.101438 0
+0.216718 +0.079798 0
+0.249665 +0.053974 0
+0.333000 +0.193947 0
+0.142395 +0.114207 0
+0.179816 +0.100793 0
+0.194098 +0.228810 0
+0.076535 +0.111411 0
+0.107307 +0.118064 0
+0.089208 +0.183598 0
+0.030598 +0.068534 0
+0.051011 +0.094451 0
+0.024055 +0.070092 0
+0.014199 +0.036016 0
+0.232753 -0.071639 0
+0.373986 -0.097439 0
+0.193723 -0.052986 0
+0.632706 -0.172024 0
+0.648071 -0.133051 0
+0.528649 -0.125922 0
+0.861441 -0.164930 0
+0.760041 -0.075898 0
+0.725990 -0.116206 0
+0.878353 -0.039317 0
+0.706518 +0.057873 0
+0.751819 -0.015757 0
+0.718883 +0.155412 0
+0.538623 +0.211308 0
+0.632175 +0.136667 0
+0.472705 +0.331396 0
+0.334918 +0.312613 0
+0.436281 +0.272607 0
+0.239951 +0.403035 0
+0.164638 +0.308747 0
+0.242558 +0.325592 0
+0.086177 +0.327436 0
+0.058447 +0.190925 0
+0.103526 +0.262589 0
+0.016912 +0.125613 0
+0.025829 +0.100449 0
+0.255177 -0.109147 0
+0.487589 -0.167745 0
+0.253447 -0.090551 0
+0.684255 -0.268127 0
+0.832420 -0.238540 0
+0.685105 -0.219911 0
+0.902939 -0.277916 0
+0.948234 -0.163026 0
+0.921027 -0.219385 0
+0.867314 -0.121305 0
+0.836576 +0.035513 0
+0.917245 -0.074860 0
+0.632175 +0.136667 0
+0.579347 +0.270589 0
+0.718883 +0.155412 0
+0.320786 +0.378155 0
+0.296907 +0.432207 0
+0.433812 +0.366939 0
+0.065609 +0.487302 0
+0.091758 +0.438334 0
+0.180365 +0.457490 0
-0.052081 +0.404794 0
+0.004156 +0.274053 0
+0.033778 +0.375323 0
-0.035625 +0.156611 0
-0.003782 +0.144525 0
+0.208698 -0.141731 0
+0.456991 -0.236279 0
+0.239248 -0.126567 0
+0.543498 -0.355622 0
+0.755885 -0.349952 0
+0.634094 -0.314362 0
+0.667343 -0.393740 0
+0.805840 -0.277233 0
+0.813720 -0.337449 0
+0.545353 -0.233264 0
+0.619858 -0.044285 0
+0.737429 -0.175652 0
+0.249665 +0.053974 0
+0.304320 +0.244079 0
+0.469217 +0.101438 0
-0.076136 +0.334702 0
+0.006869 +0.452929 0
+0.144411 +0.366293 0
-0.284834 +0.476433 0
-0.152671 +0.480358 0
-0.094837 +0.492861 0
-0.293832 +0.409596 0
-0.136027 +0.305667 0
-0.164877 +0.415800 0
-0.121990 +0.160476 0
-0.076290 +0.161796 0
+0.121990 -0.160476 0
+0.315538 -0.288363 0
+0.167894 -0.153435 0
+0.293832 -0.409596 0
+0.483433 -0.441798 0
+0.425124 -0.388511 0
+0.284834 -0.476433 0
+0.425124 -0.388511 0
+0.483433 -0.441798 0
+0.076136 -0.334702 0
+0.167894 -0.153435 0
+0.315538 -0.288363 0
-0.249665 -0.053974 0
-0.167894 +0.153435 0
-0.000000 +0.000000 0
-0.545353 +0.233264 0
-0.425124 +0.388511 0
-0.315538 +0.288363 0
-0.667343 +0.393740 0
-0.483433 +0.441798 0
-0.483433 +0.441798 0
-0.543498 +0.355622 0
-0.315538 +0.288363 0
-0.425124 +0.388511 0
-0.208698 +0.141731 0
-0.167894 +0.153435 0
+0.035625 -0.156611 0
+0.136027 -0.305667 0
+0.076290 -0.161796 0
+0.052081 -0.404794 0
+0.152671 -0.480358 0
+0.164877 -0.415800 0
-0.065609 -0.487302 0
-0.006869 -0.452929 0
+0.094837 -0.492861 0
-0.320786 -0.378155 0
-0.304320 -0.244079 0
-0.144411 -0.366293 0
-0.632175 -0.136667 0
-0.619858 +0.044285 0
-0.469217 -0.101438 0
-0.867314 +0.121305 0
-0.805840 +0.277233 0
-0.737429 +0.175652 0
-0.902939 +0.277916 0
-0.755885 +0.349952 0
-0.813720 +0.337449 0
-0.684255 +0.268127 0
-0.456991 +0.236279 0
-0.634094 +0.314362 0
-0.255177 +0.109147 0
-0.239248 +0.126567 0
-0.016912 -0.125613 0
-0.004156 -0.274053 0
+0.003782 -0.144525 0
-0.086177 -0.327436 0
-0.091758 -0.438334 0
-0.033778 -0.375323 0
-0.239951 -0.403035 0
-0.296907 -0.432207 0
-0.180365 -0.457490 0
-0.472705 -0.331396 0
-0.579347 -0.270589 0
-0.433812 -0.366939 0
-0.718883 -0.155412 0
-0.836576 -0.035513 0
-0.718883 -0.155412 0
-0.878353 +0.039317 0
-0.948234 +0.163026 0
-0.917245 +0.074860 0
-0.861441 +0.164930 0
-0.832420 +0.238540 0
-0.921027 +0.219385 0
-0.632706 +0.172024 0
-0.487589 +0.167745 0
-0.685105 +0.219911 0
-0.232753 +0.071639 0
-0.253447 +0.090551 0
-0.024055 -0.070092 0
-0.058447 -0.190925 0
-0.025829 -0.100449 0
-0.089208 -0.183598 0
-0.164638 -0.308747 0
-0.103526 -0.262589 0
-0.194098 -0.228810 0
-0.334918 -0.312613 0
-0.242558 -0.325592 0
-0.333000 -0.193947 0
-0.538623 -0.211308 0
-0.436281 -0.272607 0
-0.469217 -0.101438 0
-0.706518 -0.057873 0
-0.632175 -0.136667 0
-0.548841 +0.003306 0
-0.760041 +0.075898 0
-0.751819 +0.015757 0
-0.524785 +0.073398 0
-0.648071 +0.133051 0
-0.725990 +0.116206 0
-0.380010 +0.082160 0
-0.373986 +0.097439 0
-0.528649 +0.125922 0
-0.138902 +0.034863 0
-0.193723 +0.052986 0
-0.030598 -0.068534 0
-0.014199 -0.036016 0
-0.076535 -0.111411 0
-0.051011 -0.094451 0
-0.142395 -0.114207 0
-0.107307 -0.118064 0
-0.216718 -0.079798 0
-0.179816 -0.100793 0
-0.275027 -0.026510 0
-0.249665 -0.053974 0
-0.290038 +0.020721 0
-0.289401 -0.000645 0
-0.244429 +0.042024 0
-0.275202 +0.035371 0
-0.140183 +0.031614 0
-0.198655 +0.040477 0
-0.072508 +0.017271 0
+0.036563 -0.008823 0
+0.036646 -0.008615 0
+0.070052 -0.017803 0
+0.106837 -0.026011 0
+0.205397 -0.050465 0
+0.206507 -0.047649 0
+0.107243 -0.024982 0
+0.070857 -0.015761 0
+0.170819 -0.036866 0
+0.100435 -0.020160 0
+0.326926 -0.074671 0
+0.292533 -0.061104 0
+0.426916 -0.086002 0
+0.359742 -0.063630 0
+0.223312 -0.042246 0
+0.123617 -0.020892 0
+0.261792 -0.039737 0
+0.139241 -0.017514 0
+0.499699 -0.081710 0
+0.404731 -0.053904 0
+0.542149 -0.061090 0
+0.426132 -0.032222 0
+0.284626 -0.028991 0
+0.146833 -0.010130 0
+0.291584 -0.010759 0
+0.146620 +0.000618 0
+0.553890 -0.025604 0
+0.424656 -0.000488 0
+0.537196 +0.021265 0
+0.402909 +0.037995 0
+0.283790 +0.013185 0
+0.139470 +0.013615 0
+0.263527 +0.040243 0
+0.126762 +0.027404 0
+0.496605 +0.074411 0
+0.364998 +0.078907 0
+0.438294 +0.127700 0
+0.315997 +0.117422 0
+0.233922 +0.067298 0
+0.110203 +0.040361 0
+0.198545 +0.091089 0
+0.091616 +0.050885 0
+0.369297 +0.174705 0
+0.261315 +0.148785 0
+0.296653 +0.209479 0
+0.206063 +0.168894 0
+0.160981 +0.108596 0
+0.072726 +0.057595 0
+0.124418 +0.117420 0
+0.054970 +0.059500 0
+0.226601 +0.227283 0
+0.154478 +0.174797 0
+0.163900 +0.225170 0
+0.109490 +0.165071 0
+0.091302 +0.116070 0
+0.039346 +0.056122 0
+0.063104 +0.104165 0
+0.026328 +0.047564 0
+0.111368 +0.202371 0
+0.072465 +0.140012 0
+0.069689 +0.160413 0
+0.043166 +0.101625 0
+0.040216 +0.082489 0
+0.015853 +0.034506 0
+0.021998 +0.052922 0
+0.007379 +0.018132 0
+0.037497 +0.102975 0
+0.019925 +0.053416 0
+0.011741 +0.035486 0
+0.006958 +0.018232 0
+0.097722 -0.027040 0
+0.168064 -0.043854 0
+0.117452 -0.036530 0
+0.215422 -0.062259 0
+0.343842 -0.103961 0
+0.415608 -0.114684 0
+0.286352 -0.076784 0
+0.324618 -0.080525 0
+0.455207 -0.114074 0
+0.459276 -0.103752 0
+0.545549 -0.155224 0
+0.586836 -0.148701 0
+0.708868 -0.181837 0
+0.718230 -0.158091 0
+0.593265 -0.132394 0
+0.563768 -0.109011 0
+0.692485 -0.127672 0
+0.632694 -0.094110 0
+0.823895 -0.178475 0
+0.802781 -0.139813 0
+0.885415 -0.143671 0
+0.837919 -0.094420 0
+0.748517 -0.098831 0
+0.663961 -0.059502 0
+0.760995 -0.047967 0
+0.658842 -0.008270 0
+0.893278 -0.080050 0
+0.825595 -0.026051 0
+0.852188 +0.005936 0
+0.771854 +0.058034 0
+0.733384 +0.019858 0
+0.621671 +0.054209 0
+0.672416 +0.097200 0
+0.559209 +0.120893 0
+0.770969 +0.104751 0
+0.685971 +0.148297 0
+0.661380 +0.204902 0
+0.579246 +0.234054 0
+0.587171 +0.175104 0
+0.479755 +0.183903 0
+0.487931 +0.244172 0
+0.392127 +0.235474 0
+0.536640 +0.294308 0
+0.463610 +0.304758 0
+0.409830 +0.361763 0
+0.350218 +0.351278 0
+0.384939 +0.295702 0
+0.304617 +0.268894 0
+0.287217 +0.322742 0
+0.224064 +0.279329 0
+0.292378 +0.398292 0
+0.248188 +0.367017 0
+0.192798 +0.398270 0
+0.163638 +0.348738 0
+0.201579 +0.320956 0
+0.155137 +0.264428 0
+0.131964 +0.289178 0
+0.099933 +0.224645 0
+0.115831 +0.360126 0
+0.099135 +0.296998 0
+0.062101 +0.286589 0
+0.053624 +0.216125 0
+0.079151 +0.229595 0
+0.057903 +0.163220 0
+0.040899 +0.147530 0
+0.026148 +0.085840 0
+0.028293 +0.184411 0
+0.022814 +0.113762 0
+0.007863 +0.063621 0
+0.012477 +0.050863 0
+0.127959 -0.046132 0
+0.245486 -0.081095 0
+0.128924 -0.055555 0
+0.256654 -0.099940 0
+0.376194 -0.158888 0
+0.493100 -0.185502 0
+0.374096 -0.131609 0
+0.472801 -0.149936 0
+0.591900 -0.197583 0
+0.665617 -0.195822 0
+0.592853 -0.239866 0
+0.691240 -0.244113 0
+0.762113 -0.286700 0
+0.836954 -0.266590 0
+0.765727 -0.233799 0
+0.811084 -0.210969 0
+0.884402 -0.233772 0
+0.901061 -0.191518 0
+0.872169 -0.291881 0
+0.921505 -0.248312 0
+0.917365 -0.253137 0
+0.942323 -0.189833 0
+0.942274 -0.195632 0
+0.932814 -0.138058 0
+0.939629 -0.122409 0
+0.909099 -0.055614 0
+0.898641 -0.173759 0
+0.903086 -0.096869 0
+0.823226 -0.062246 0
+0.813086 +0.020353 0
+0.882442 -0.021712 0
+0.837629 +0.046918 0
+0.781476 +0.095149 0
+0.729996 +0.157814 0
+0.703618 +0.068686 0
+0.685971 +0.148297 0
+0.555969 +0.203618 0
+0.538014 +0.271735 0
+0.650873 +0.214504 0
+0.600181 +0.263916 0
+0.506386 +0.321957 0
+0.462844 +0.352209 0
+0.398089 +0.326277 0
+0.386119 +0.375576 0
+0.247293 +0.421493 0
+0.245814 +0.446691 0
+0.363478 +0.404122 0
+0.331575 +0.411401 0
+0.235520 +0.450254 0
+0.217357 +0.433303 0
+0.118369 +0.477048 0
+0.129464 +0.475516 0
+0.021895 +0.485165 0
+0.044914 +0.457237 0
+0.132290 +0.453566 0
+0.127380 +0.413852 0
+0.058973 +0.412087 0
+0.064378 +0.353636 0
-0.036884 +0.443484 0
-0.005269 +0.392410 0
-0.058495 +0.355386 0
-0.023868 +0.286943 0
+0.015749 +0.328948 0
+0.026545 +0.257887 0
-0.001960 +0.212060 0
+0.008039 +0.135903 0
-0.048943 +0.229635 0
-0.018419 +0.151443 0
-0.018725 +0.079378 0
-0.002644 +0.073223 0
+0.121001 -0.064364 0
+0.249276 -0.118072 0
+0.105710 -0.072016 0
+0.225561 -0.134510 0
+0.306345 -0.206936 0
+0.429635 -0.251560 0
+0.352097 -0.184531 0
+0.477247 -0.220008 0
+0.551684 -0.280072 0
+0.664912 -0.291678 0
+0.475860 -0.315637 0
+0.593153 -0.335834 0
+0.597500 -0.384208 0
+0.701594 -0.376040 0
+0.702623 -0.337964 0
+0.797608 -0.322712 0
+0.793100 -0.349842 0
+0.866535 -0.307811 0
+0.659995 -0.403645 0
+0.746583 -0.366314 0
+0.658814 -0.370953 0
+0.726751 -0.306952 0
+0.817856 -0.313052 0
+0.869597 -0.247428 0
+0.778648 -0.231006 0
+0.811470 -0.147754 0
+0.596625 -0.289529 0
+0.647784 -0.204400 0
+0.482891 -0.168769 0
+0.521632 -0.070504 0
+0.683897 -0.112801 0
+0.702883 -0.020008 0
+0.547554 +0.027851 0
+0.559209 +0.120893 0
+0.332675 -0.022949 0
+0.364998 +0.078907 0
+0.164775 +0.130491 0
+0.197273 +0.225921 0
+0.387346 +0.174261 0
+0.398544 +0.258121 0
+0.222596 +0.308772 0
+0.239499 +0.374958 0
-0.000557 +0.273043 0
+0.038187 +0.352697 0
-0.144060 +0.387367 0
-0.094556 +0.443623 0
+0.071895 +0.414881 0
+0.098982 +0.456820 0
-0.049106 +0.479245 0
-0.009777 +0.493030 0
-0.249771 +0.459382 0
-0.187374 +0.487207 0
-0.306901 +0.479979 0
-0.232362 +0.477481 0
-0.129501 +0.493303 0
-0.078703 +0.478129 0
-0.164339 +0.454333 0
-0.105703 +0.412570 0
-0.311085 +0.446127 0
-0.228155 +0.414741 0
-0.264826 +0.361259 0
-0.179962 +0.305536 0
-0.155069 +0.365814 0
-0.094725 +0.302704 0
-0.109203 +0.237041 0
-0.055064 +0.160057 0
-0.177103 +0.234876 0
-0.098799 +0.161915 0
-0.062189 +0.081424 0
-0.039207 +0.082047 0
+0.085245 -0.077903 0
+0.189274 -0.148098 0
+0.062189 -0.081424 0
+0.145250 -0.157616 0
+0.177103 -0.234876 0
+0.270994 -0.296650 0
+0.245453 -0.224314 0
+0.357705 -0.277904 0
+0.376056 -0.343669 0
+0.486903 -0.373345 0
+0.264826 -0.361259 0
+0.360141 -0.400750 0
+0.311085 -0.446127 0
+0.400130 -0.457749 0
+0.461301 -0.421572 0
+0.563093 -0.422519 0
+0.490906 -0.448628 0
+0.578717 -0.419141 0
+0.306901 -0.479979 0
+0.384506 -0.461127 0
+0.249771 -0.459382 0
+0.313743 -0.410780 0
+0.461301 -0.421572 0
+0.533302 -0.363315 0
+0.376056 -0.343669 0
+0.433467 -0.261526 0
+0.144060 -0.387367 0
+0.195232 -0.313029 0
+0.000557 -0.273043 0
+0.042425 -0.179845 0
+0.245453 -0.224314 0
+0.292099 -0.125869 0
+0.085245 -0.077903 0
+0.126762 +0.027404 0
-0.164775 -0.130491 0
-0.126762 -0.027404 0
-0.332675 +0.022949 0
-0.292099 +0.125869 0
-0.085245 +0.077903 0
-0.042425 +0.179845 0
-0.245453 +0.224314 0
-0.195232 +0.313029 0
-0.482891 +0.168769 0
-0.433467 +0.261526 0
-0.596625 +0.289529 0
-0.533302 +0.363315 0
-0.376056 +0.343669 0
-0.313743 +0.410780 0
-0.461301 +0.421572 0
-0.384506 +0.461127 0
-0.658814 +0.370953 0
-0.578717 +0.419141 0
-0.659995 +0.403645 0
-0.563093 +0.422519 0
-0.490906 +0.448628 0
-0.400130 +0.457749 0
-0.461301 +0.421572 0
-0.360141 +0.400750 0
-0.597500 +0.384208 0
-0.486903 +0.373345 0
-0.475860 +0.315637 0
-0.357705 +0.277904 0
-0.376056 +0.343669 0
-0.270994 +0.296650 0
-0.245453 +0.224314 0
-0.145250 +0.157616 0
-0.306345 +0.206936 0
-0.189274 +0.148098 0
-0.105710 +0.072016 0
-0.085245 +0.077903 0
+0.039207 -0.082047 0
+0.098799 -0.161915 0
+0.018725 -0.079378 0
+0.055064 -0.160057 0
+0.048943 -0.229635 0
+0.094725 -0.302704 0
+0.109203 -0.237041 0
+0.179962 -0.305536 0
+0.155069 -0.365814 0
+0.228155 -0.414741 0
+0.058495 -0.355386 0
+0.105703 -0.412570 0
+0.036884 -0.443484 0
+0.078703 -0.478129 0
+0.164339 -0.454333 0
+0.232362 -0.477481 0
+0.129501 -0.493303 0
+0.187374 -0.487207 0
-0.021895 -0.485165 0
+0.009777 -0.493030 0
-0.118369 -0.477048 0
-0.098982 -0.456820 0
+0.049106 -0.479245 0
+0.094556 -0.443623 0
-0.071895 -0.414881 0
-0.038187 -0.352697 0
-0.247293 -0.421493 0
-0.239499 -0.374958 0
-0.398089 -0.326277 0
-0.398544 -0.258121 0
-0.222596 -0.308772 0
-0.197273 -0.225921 0
-0.387346 -0.174261 0
-0.364998 -0.078907 0
-0.555969 -0.203618 0
-0.559209 -0.120893 0
-0.703618 -0.068686 0
-0.702883 +0.020008 0
-0.547554 -0.027851 0
-0.521632 +0.070504 0
-0.683897 +0.112801 0
-0.647784 +0.204400 0
-0.823226 +0.062246 0
-0.811470 +0.147754 0
-0.898641 +0.173759 0
-0.869597 +0.247428 0
-0.778648 +0.231006 0
-0.726751 +0.306952 0
-0.817856 +0.313052 0
-0.746583 +0.366314 0
-0.917365 +0.253137 0
-0.866535 +0.307811 0
-0.872169 +0.291881 0
-0.797608 +0.322712 0
-0.793100 +0.349842 0
-0.701594 +0.376040 0
-0.702623 +0.337964 0
-0.593153 +0.335834 0
-0.762113 +0.286700 0
-0.664912 +0.291678 0
-0.592853 +0.239866 0
-0.477247 +0.220008 0
-0.551684 +0.280072 0
-0.429635 +0.251560 0
-0.352097 +0.184531 0
-0.225561 +0.134510 0
-0.376194 +0.158888 0
-0.249276 +0.118072 0
-0.128924 +0.055555 0
-0.121001 +0.064364 0
+0.002644 -0.073223 0
+0.018419 -0.151443 0
-0.007863 -0.063621 0
-0.008039 -0.135903 0
-0.028293 -0.184411 0
-0.026545 -0.257887 0
+0.001960 -0.212060 0
+0.023868 -0.286943 0
-0.015749 -0.328948 0
+0.005269 -0.392410 0
-0.062101 -0.286589 0
-0.064378 -0.353636 0
-0.115831 -0.360126 0
-0.127380 -0.413852 0
-0.058973 -0.412087 0
-0.044914 -0.457237 0
-0.132290 -0.453566 0
-0.129464 -0.475516 0
-0.192798 -0.398270 0
-0.217357 -0.433303 0
-0.292378 -0.398292 0
-0.331575 -0.411401 0
-0.235520 -0.450254 0
-0.245814 -0.446691 0
-0.363478 -0.404122 0
-0.386119 -0.375576 0
-0.409830 -0.361763 0
-0.462844 -0.352209 0
-0.536640 -0.294308 0
-0.600181 -0.263916 0
-0.506386 -0.321957 0
-0.538014 -0.271735 0
-0.650873 -0.214504 0
-0.685971 -0.148297 0
-0.661380 -0.204902 0
-0.729996 -0.157814 0
-0.770969 -0.104751 0
-0.837629 -0.046918 0
-0.781476 -0.095149 0
-0.813086 -0.020353 0
-0.882442 +0.021712 0
-0.903086 +0.096869 0
-0.852188 -0.005936 0
-0.909099 +0.055614 0
-0.893278 +0.080050 0
-0.932814 +0.138058 0
-0.939629 +0.122409 0
-0.942323 +0.189833 0
-0.942274 +0.195632 0
-0.921505 +0.248312 0
-0.885415 +0.143671 0
-0.901061 +0.191518 0
-0.823895 +0.178475 0
-0.811084 +0.210969 0